    6    6    1    1
  0.4161129E+02  0.3395829E-09  0.3395829E-09  0.2500000E-08  0.5000000E-15
  1.000000000000000E-004
  CAR 
 TB-Sic                                  
     20    384     40
 
  0.0000000E+00  0.0000000E+00  0.0000000E+00  0.2604167E-02
    1      -10.520695   1.000000
    2      -10.463030   1.000000
    3       -4.737500   1.000000
    4       -4.149904   1.000000
    5       -2.082326   1.000000
    6       -1.586160   1.000000
    7       -1.586159   1.000000
    8       -1.557560   1.000000
    9       -1.557558   1.000000
   10       -0.892340   1.000000
   11       -0.473890   0.992200
   12        1.247395   0.000000
   13        1.717686   0.000000
   14        1.717687   0.000000
   15        1.781691   0.000000
   16        1.781691   0.000000
   17        1.789293   0.000000
   18        2.438294   0.000000
   19        2.438296   0.000000
   20        2.506898   0.000000
   21        2.506899   0.000000
   22        3.140448   0.000000
   23        3.140448   0.000000
   24        3.506131   0.000000
   25        3.506132   0.000000
   26        3.523669   0.000000
   27        3.611101   0.000000
   28        3.926078   0.000000
   29        3.980166   0.000000
   30        4.678294   0.000000
   31        4.816267   0.000000
   32        5.418481   0.000000
   33        5.418482   0.000000
   34        5.568896   0.000000
   35        5.568897   0.000000
   36        5.850289   0.000000
   37        5.997836   0.000000
   38        7.460067   0.000000
   39        7.849023   0.000000
   40        9.091343   0.000000
 
  0.5263158E-02  0.0000000E+00  0.0000000E+00  0.2604167E-02
    1      -10.520405   1.000000
    2      -10.462752   1.000000
    3       -4.737001   1.000000
    4       -4.149442   1.000000
    5       -2.083226   1.000000
    6       -1.586132   1.000000
    7       -1.585703   1.000000
    8       -1.558884   1.000000
    9       -1.557539   1.000000
   10       -0.891501   1.000000
   11       -0.473728   0.992175
   12        1.247443   0.000000
   13        1.717003   0.000000
   14        1.717944   0.000000
   15        1.778826   0.000000
   16        1.782029   0.000000
   17        1.791195   0.000000
   18        2.437255   0.000000
   19        2.437419   0.000000
   20        2.506618   0.000000
   21        2.507480   0.000000
   22        3.140439   0.000000
   23        3.140686   0.000000
   24        3.505627   0.000000
   25        3.506362   0.000000
   26        3.524576   0.000000
   27        3.611660   0.000000
   28        3.927061   0.000000
   29        3.981347   0.000000
   30        4.678909   0.000000
   31        4.817147   0.000000
   32        5.417469   0.000000
   33        5.418594   0.000000
   34        5.568613   0.000000
   35        5.568930   0.000000
   36        5.852128   0.000000
   37        5.998485   0.000000
   38        7.460638   0.000000
   39        7.849535   0.000000
   40        9.091658   0.000000
 
  0.1052632E-01  0.0000000E+00  0.0000000E+00  0.2604167E-02
    1      -10.519538   1.000000
    2      -10.461926   1.000000
    3       -4.735506   1.000000
    4       -4.148054   1.000000
    5       -2.085916   1.000000
    6       -1.586049   1.000000
    7       -1.584350   1.000000
    8       -1.562861   1.000000
    9       -1.557485   1.000000
   10       -0.889002   1.000000
   11       -0.473242   0.992101
   12        1.247586   0.000000
   13        1.714952   0.000000
   14        1.718717   0.000000
   15        1.772948   0.000000
   16        1.783042   0.000000
   17        1.794187   0.000000
   18        2.434159   0.000000
   19        2.434889   0.000000
   20        2.505775   0.000000
   21        2.509133   0.000000
   22        3.140415   0.000000
   23        3.141398   0.000000
   24        3.504337   0.000000
   25        3.507049   0.000000
   26        3.527077   0.000000
   27        3.613336   0.000000
   28        3.929999   0.000000
   29        3.984877   0.000000
   30        4.680751   0.000000
   31        4.819779   0.000000
   32        5.414479   0.000000
   33        5.418921   0.000000
   34        5.567741   0.000000
   35        5.569018   0.000000
   36        5.857597   0.000000
   37        6.000426   0.000000
   38        7.462367   0.000000
   39        7.851067   0.000000
   40        9.092363   0.000000
 
  0.1578947E-01  0.0000000E+00  0.0000000E+00  0.2604167E-02
    1      -10.518095   1.000000
    2      -10.460550   1.000000
    3       -4.733015   1.000000
    4       -4.145739   1.000000
    5       -2.090363   1.000000
    6       -1.585912   1.000000
    7       -1.582145   1.000000
    8       -1.569401   1.000000
    9       -1.557398   1.000000
   10       -0.884901   1.000000
   11       -0.472430   0.991976
   12        1.247821   0.000000
   13        1.711533   0.000000
   14        1.720004   0.000000
   15        1.765441   0.000000
   16        1.784730   0.000000
   17        1.796894   0.000000
   18        2.429079   0.000000
   19        2.430951   0.000000
   20        2.504370   0.000000
   21        2.511624   0.000000
   22        3.140385   0.000000
   23        3.142581   0.000000
   24        3.502648   0.000000
   25        3.508187   0.000000
   26        3.530788   0.000000
   27        3.616120   0.000000
   28        3.934863   0.000000
   29        3.990725   0.000000
   30        4.683818   0.000000
   31        4.824141   0.000000
   32        5.409649   0.000000
   33        5.419464   0.000000
   34        5.566298   0.000000
   35        5.569164   0.000000
   36        5.866564   0.000000
   37        6.003658   0.000000
   38        7.465244   0.000000
   39        7.853603   0.000000
   40        9.094533   0.000000
 
  0.2105263E-01  0.0000000E+00  0.0000000E+00  0.2604167E-02
    1      -10.516074   1.000000
    2      -10.458628   1.000000
    3       -4.729531   1.000000
    4       -4.142503   1.000000
    5       -2.096517   1.000000
    6       -1.585725   1.000000
    7       -1.579722   1.000000
    8       -1.577827   1.000000
    9       -1.557281   1.000000
   10       -0.879284   1.000000
   11       -0.471291   0.991797
   12        1.248142   0.000000
   13        1.706744   0.000000
   14        1.721802   0.000000
   15        1.756433   0.000000
   16        1.787089   0.000000
   17        1.799203   0.000000
   18        2.422125   0.000000
   19        2.425899   0.000000
   20        2.502406   0.000000
   21        2.514684   0.000000
   22        3.140364   0.000000
   23        3.144226   0.000000
   24        3.500815   0.000000
   25        3.509768   0.000000
   26        3.535462   0.000000
   27        3.620003   0.000000
   28        3.941599   0.000000
   29        3.998833   0.000000
   30        4.688103   0.000000
   31        4.830193   0.000000
   32        5.403184   0.000000
   33        5.420219   0.000000
   34        5.564285   0.000000
   35        5.569360   0.000000
   36        5.878828   0.000000
   37        6.008173   0.000000
   38        7.469276   0.000000
   39        7.857143   0.000000
   40        9.098040   0.000000
 
  0.2631579E-01  0.0000000E+00  0.0000000E+00  0.2604167E-02
    1      -10.513475   1.000000
    2      -10.456156   1.000000
    3       -4.725054   1.000000
    4       -4.138342   1.000000
    5       -2.104307   1.000000
    6       -1.590018   1.000000
    7       -1.585479   1.000000
    8       -1.575122   1.000000
    9       -1.557129   1.000000
   10       -0.872264   1.000000
   11       -0.469822   0.991561
   12        1.248542   0.000000
   13        1.700584   0.000000
   14        1.724107   0.000000
   15        1.745888   0.000000
   16        1.790118   0.000000
   17        1.801175   0.000000
   18        2.413429   0.000000
   19        2.420006   0.000000
   20        2.499903   0.000000
   21        2.518070   0.000000
   22        3.140372   0.000000
   23        3.146323   0.000000
   24        3.498961   0.000000
   25        3.511778   0.000000
   26        3.540986   0.000000
   27        3.624968   0.000000
   28        3.950138   0.000000
   29        4.009130   0.000000
   30        4.693598   0.000000
   31        4.837886   0.000000
   32        5.395326   0.000000
   33        5.421185   0.000000
   34        5.561719   0.000000
   35        5.569609   0.000000
   36        5.894150   0.000000
   37        6.013967   0.000000
   38        7.474460   0.000000
   39        7.861727   0.000000
   40        9.101878   0.000000
 
  0.3157895E-01  0.0000000E+00  0.0000000E+00  0.2604167E-02
    1      -10.510307   1.000000
    2      -10.453141   1.000000
    3       -4.719588   1.000000
    4       -4.133263   1.000000
    5       -2.113659   1.000000
    6       -1.603651   1.000000
    7       -1.585185   1.000000
    8       -1.570637   1.000000
    9       -1.556945   1.000000
   10       -0.863968   1.000000
   11       -0.468018   0.991264
   12        1.249011   0.000000
   13        1.693053   0.000000
   14        1.726915   0.000000
   15        1.733755   0.000000
   16        1.793812   0.000000
   17        1.802889   0.000000
   18        2.403137   0.000000
   19        2.413495   0.000000
   20        2.496891   0.000000
   21        2.521600   0.000000
   22        3.140433   0.000000
   23        3.148857   0.000000
   24        3.497141   0.000000
   25        3.514202   0.000000
   26        3.547319   0.000000
   27        3.630998   0.000000
   28        3.960393   0.000000
   29        4.021521   0.000000
   30        4.700291   0.000000
   31        4.847150   0.000000
   32        5.386310   0.000000
   33        5.422354   0.000000
   34        5.558629   0.000000
   35        5.569902   0.000000
   36        5.912273   0.000000
   37        6.021032   0.000000
   38        7.480803   0.000000
   39        7.867280   0.000000
   40        9.107147   0.000000
 
  0.3684211E-01  0.0000000E+00  0.0000000E+00  0.2604167E-02
    1      -10.506563   1.000000
    2      -10.449582   1.000000
    3       -4.713136   1.000000
    4       -4.127269   1.000000
    5       -2.124484   1.000000
    6       -1.619371   1.000000
    7       -1.584839   1.000000
    8       -1.565499   1.000000
    9       -1.556735   1.000000
   10       -0.854532   1.000000
   11       -0.465876   0.990899
   12        1.249535   0.000000
   13        1.684153   0.000000
   14        1.719998   0.000000
   15        1.730221   0.000000
   16        1.798168   0.000000
   17        1.804421   0.000000
   18        2.391404   0.000000
   19        2.406545   0.000000
   20        2.493421   0.000000
   21        2.525145   0.000000
   22        3.140575   0.000000
   23        3.151812   0.000000
   24        3.495381   0.000000
   25        3.517021   0.000000
   26        3.554458   0.000000
   27        3.638073   0.000000
   28        3.972264   0.000000
   29        4.035899   0.000000
   30        4.708170   0.000000
   31        4.857902   0.000000
   32        5.376386   0.000000
   33        5.423721   0.000000
   34        5.555059   0.000000
   35        5.570232   0.000000
   36        5.932946   0.000000
   37        6.029365   0.000000
   38        7.488287   0.000000
   39        7.873803   0.000000
   40        9.112392   0.000000
 
  0.4210526E-01  0.0000000E+00  0.0000000E+00  0.2604167E-02
    1      -10.502254   1.000000
    2      -10.445481   1.000000
    3       -4.705698   1.000000
    4       -4.120365   1.000000
    5       -2.136696   1.000000
    6       -1.637016   1.000000
    7       -1.584445   1.000000
    8       -1.559823   1.000000
    9       -1.556499   1.000000
   10       -0.844090   1.000000
   11       -0.463391   0.990458
   12        1.250100   0.000000
   13        1.673889   0.000000
   14        1.704606   0.000000
   15        1.734016   0.000000
   16        1.803181   0.000000
   17        1.805831   0.000000
   18        2.378386   0.000000
   19        2.399297   0.000000
   20        2.489548   0.000000
   21        2.528621   0.000000
   22        3.140829   0.000000
   23        3.155167   0.000000
   24        3.493700   0.000000
   25        3.520213   0.000000
   26        3.562408   0.000000
   27        3.646173   0.000000
   28        3.985637   0.000000
   29        4.052151   0.000000
   30        4.717220   0.000000
   31        4.870044   0.000000
   32        5.365759   0.000000
   33        5.425277   0.000000
   34        5.551056   0.000000
   35        5.570590   0.000000
   36        5.955924   0.000000
   37        6.038967   0.000000
   38        7.496929   0.000000
   39        7.881494   0.000000
   40        9.119409   0.000000
 
  0.4736842E-01  0.0000000E+00  0.0000000E+00  0.2604167E-02
    1      -10.497384   1.000000
    2      -10.440848   1.000000
    3       -4.697286   1.000000
    4       -4.112556   1.000000
    5       -2.150208   1.000000
    6       -1.656446   1.000000
    7       -1.584015   1.000000
    8       -1.556245   1.000000
    9       -1.553690   1.000000
   10       -0.832773   1.000000
   11       -0.460560   0.989934
   12        1.250685   0.000000
   13        1.662264   0.000000
   14        1.687590   0.000000
   15        1.738292   0.000000
   16        1.807170   0.000000
   17        1.808843   0.000000
   18        2.364240   0.000000
   19        2.391865   0.000000
   20        2.485336   0.000000
   21        2.531977   0.000000
   22        3.141228   0.000000
   23        3.158900   0.000000
   24        3.492116   0.000000
   25        3.523755   0.000000
   26        3.571183   0.000000
   27        3.655274   0.000000
   28        4.000392   0.000000
   29        4.070140   0.000000
   30        4.727423   0.000000
   31        4.883454   0.000000
   32        5.354624   0.000000
   33        5.427007   0.000000
   34        5.546677   0.000000
   35        5.570964   0.000000
   36        5.980976   0.000000
   37        6.049855   0.000000
   38        7.506726   0.000000
   39        7.889893   0.000000
   40        9.127336   0.000000
 
  0.5263158E-01  0.0000000E+00  0.0000000E+00  0.2604167E-02
    1      -10.491954   1.000000
    2      -10.435683   1.000000
    3       -4.687901   1.000000
    4       -4.103850   1.000000
    5       -2.164931   1.000000
    6       -1.677501   1.000000
    7       -1.583545   1.000000
    8       -1.555975   1.000000
    9       -1.547169   1.000000
   10       -0.820702   0.999999
   11       -0.457377   0.989315
   12        1.251268   0.000000
   13        1.649281   0.000000
   14        1.668992   0.000000
   15        1.743041   0.000000
   16        1.808477   0.000000
   17        1.815149   0.000000
   18        2.349120   0.000000
   19        2.384346   0.000000
   20        2.480852   0.000000
   21        2.535189   0.000000
   22        3.141804   0.000000
   23        3.162986   0.000000
   24        3.490652   0.000000
   25        3.527623   0.000000
   26        3.580794   0.000000
   27        3.665356   0.000000
   28        4.016405   0.000000
   29        4.089733   0.000000
   30        4.738760   0.000000
   31        4.898000   0.000000
   32        5.343153   0.000000
   33        5.428908   0.000000
   34        5.542001   0.000000
   35        5.571346   0.000000
   36        6.007853   0.000000
   37        6.062081   0.000000
   38        7.517674   0.000000
   39        7.899413   0.000000
   40        9.135133   0.000000
 
  0.5789474E-01  0.0000000E+00  0.0000000E+00  0.2604167E-02
    1      -10.485967   1.000000
    2      -10.429984   1.000000
    3       -4.677548   1.000000
    4       -4.094248   1.000000
    5       -2.180780   1.000000
    6       -1.700036   1.000000
    7       -1.583037   1.000000
    8       -1.555683   1.000000
    9       -1.540324   1.000000
   10       -0.807985   0.999999
   11       -0.453838   0.988587
   12        1.251820   0.000000
   13        1.634921   0.000000
   14        1.648898   0.000000
   15        1.748252   0.000000
   16        1.809784   0.000000
   17        1.822089   0.000000
   18        2.333176   0.000000
   19        2.376825   0.000000
   20        2.476157   0.000000
   21        2.538250   0.000000
   22        3.142589   0.000000
   23        3.167396   0.000000
   24        3.489339   0.000000
   25        3.531789   0.000000
   26        3.591250   0.000000
   27        3.676397   0.000000
   28        4.033552   0.000000
   29        4.110791   0.000000
   30        4.751207   0.000000
   31        4.913526   0.000000
   32        5.331503   0.000000
   33        5.430959   0.000000
   34        5.537116   0.000000
   35        5.571725   0.000000
   36        6.036233   0.000000
   37        6.075799   0.000000
   38        7.529772   0.000000
   39        7.909847   0.000000
   40        9.144200   0.000000
 
  0.6315789E-01  0.0000000E+00  0.0000000E+00  0.2604167E-02
    1      -10.479427   1.000000
    2      -10.423761   1.000000
    3       -4.666232   1.000000
    4       -4.083759   1.000000
    5       -2.197675   1.000000
    6       -1.723931   1.000000
    7       -1.582495   1.000000
    8       -1.555376   1.000000
    9       -1.533219   1.000000
   10       -0.794721   0.999999
   11       -0.449938   0.987737
   12        1.252307   0.000000
   13        1.619060   0.000000
   14        1.627525   0.000000
   15        1.753912   0.000000
   16        1.811113   0.000000
   17        1.829657   0.000000
   18        2.316554   0.000000
   19        2.369378   0.000000
   20        2.471309   0.000000
   21        2.541168   0.000000
   22        3.143611   0.000000
   23        3.172099   0.000000
   24        3.488211   0.000000
   25        3.536229   0.000000
   26        3.602559   0.000000
   27        3.688377   0.000000
   28        4.051710   0.000000
   29        4.133169   0.000000
   30        4.764739   0.000000
   31        4.929850   0.000000
   32        5.319820   0.000000
   33        5.433155   0.000000
   34        5.532124   0.000000
   35        5.572090   0.000000
   36        6.065421   0.000000
   37        6.091551   0.000000
   38        7.543020   0.000000
   39        7.921267   0.000000
   40        9.154344   0.000000
 
  0.6842105E-01  0.0000000E+00  0.0000000E+00  0.2604167E-02
    1      -10.472343   1.000000
    2      -10.417021   1.000000
    3       -4.653966   1.000000
    4       -4.072395   1.000000
    5       -2.215544   1.000000
    6       -1.749078   1.000000
    7       -1.581923   1.000000
    8       -1.555062   1.000000
    9       -1.525916   1.000000
   10       -0.780998   0.999998
   11       -0.445676   0.986744
   12        1.252686   0.000000
   13        1.600801   0.000000
   14        1.605886   0.000000
   15        1.760009   0.000000
   16        1.812483   0.000000
   17        1.837839   0.000000
   18        2.299390   0.000000
   19        2.362075   0.000000
   20        2.466362   0.000000
   21        2.543962   0.000000
   22        3.144896   0.000000
   23        3.177065   0.000000
   24        3.487305   0.000000
   25        3.540913   0.000000
   26        3.614726   0.000000
   27        3.701276   0.000000
   28        4.070750   0.000000
   29        4.156722   0.000000
   30        4.779323   0.000000
   31        4.946763   0.000000
   32        5.308244   0.000000
   33        5.435478   0.000000
   34        5.527143   0.000000
   35        5.572424   0.000000
   36        6.093074   0.000000
   37        6.111542   0.000000
   38        7.557411   0.000000
   39        7.933625   0.000000
   40        9.165928   0.000000
 
  0.7368421E-01  0.0000000E+00  0.0000000E+00  0.2604167E-02
    1      -10.464717   1.000000
    2      -10.409765   1.000000
    3       -4.640752   1.000000
    4       -4.060159   1.000000
    5       -2.234315   1.000000
    6       -1.775357   1.000000
    7       -1.581328   1.000000
    8       -1.554745   1.000000
    9       -1.518452   1.000000
   10       -0.766888   0.999996
   11       -0.441049   0.985589
   12        1.252903   0.000000
   13        1.578127   0.000000
   14        1.586140   0.000000
   15        1.766527   0.000000
   16        1.813907   0.000000
   17        1.846627   0.000000
   18        2.281814   0.000000
   19        2.354983   0.000000
   20        2.461363   0.000000
   21        2.546659   0.000000
   22        3.146465   0.000000
   23        3.182259   0.000000
   24        3.486662   0.000000
   25        3.545815   0.000000
   26        3.627751   0.000000
   27        3.715074   0.000000
   28        4.090563   0.000000
   29        4.181309   0.000000
   30        4.794919   0.000000
   31        4.964023   0.000000
   32        5.296926   0.000000
   33        5.437912   0.000000
   34        5.522321   0.000000
   35        5.572714   0.000000
   36        6.115434   0.000000
   37        6.139410   0.000000
   38        7.572947   0.000000
   39        7.946914   0.000000
   40        9.178583   0.000000
 
  0.7894737E-01  0.0000000E+00  0.0000000E+00  0.2604167E-02
    1      -10.456558   1.000000
    2      -10.402003   1.000000
    3       -4.626605   1.000000
    4       -4.047068   1.000000
    5       -2.253926   1.000000
    6       -1.802679   1.000000
    7       -1.580712   1.000000
    8       -1.554430   1.000000
    9       -1.510875   1.000000
   10       -0.752455   0.999994
   11       -0.436056   0.984247
   12        1.252889   0.000000
   13        1.552847   0.000000
   14        1.566649   0.000000
   15        1.773451   0.000000
   16        1.815394   0.000000
   17        1.856007   0.000000
   18        2.263948   0.000000
   19        2.348165   0.000000
   20        2.456354   0.000000
   21        2.549293   0.000000
   22        3.148333   0.000000
   23        3.187647   0.000000
   24        3.486325   0.000000
   25        3.550907   0.000000
   26        3.641634   0.000000
   27        3.729751   0.000000
   28        4.111034   0.000000
   29        4.206790   0.000000
   30        4.811474   0.000000
   31        4.981347   0.000000
   32        5.286023   0.000000
   33        5.440438   0.000000
   34        5.517824   0.000000
   35        5.572940   0.000000
   36        6.135019   0.000000
   37        6.172519   0.000000
   38        7.589612   0.000000
   39        7.961023   0.000000
   40        9.190099   0.000000
 
  0.8421053E-01  0.0000000E+00  0.0000000E+00  0.2604167E-02
    1      -10.447871   1.000000
    2      -10.393738   1.000000
    3       -4.611529   1.000000
    4       -4.033126   1.000000
    5       -2.274318   1.000000
    6       -1.830950   1.000000
    7       -1.580079   1.000000
    8       -1.554119   1.000000
    9       -1.503222   1.000000
   10       -0.737752   0.999991
   11       -0.430696   0.982687
   12        1.252555   0.000000
   13        1.526214   0.000000
   14        1.546357   0.000000
   15        1.780762   0.000000
   16        1.816953   0.000000
   17        1.865964   0.000000
   18        2.245901   0.000000
   19        2.341684   0.000000
   20        2.451372   0.000000
   21        2.551903   0.000000
   22        3.150513   0.000000
   23        3.193195   0.000000
   24        3.486335   0.000000
   25        3.556164   0.000000
   26        3.656371   0.000000
   27        3.745289   0.000000
   28        4.132062   0.000000
   29        4.233030   0.000000
   30        4.828919   0.000000
   31        4.998419   0.000000
   32        5.275704   0.000000
   33        5.443041   0.000000
   34        5.513864   0.000000
   35        5.573091   0.000000
   36        6.154626   0.000000
   37        6.207970   0.000000
   38        7.607404   0.000000
   39        7.976059   0.000000
   40        9.204766   0.000000
 
  0.8947368E-01  0.0000000E+00  0.0000000E+00  0.2604167E-02
    1      -10.438664   1.000000
    2      -10.384977   1.000000
    3       -4.595536   1.000000
    4       -4.018347   1.000000
    5       -2.295431   1.000000
    6       -1.860091   1.000000
    7       -1.579436   1.000000
    8       -1.553817   1.000000
    9       -1.495516   1.000000
   10       -0.722825   0.999985
   11       -0.424970   0.980878
   12        1.251778   0.000000
   13        1.498562   0.000000
   14        1.525174   0.000000
   15        1.788442   0.000000
   16        1.818589   0.000000
   17        1.876485   0.000000
   18        2.227776   0.000000
   19        2.335602   0.000000
   20        2.446452   0.000000
   21        2.554531   0.000000
   22        3.153008   0.000000
   23        3.198867   0.000000
   24        3.486731   0.000000
   25        3.561558   0.000000
   26        3.671957   0.000000
   27        3.761667   0.000000
   28        4.153551   0.000000
   29        4.259902   0.000000
   30        4.847159   0.000000
   31        5.014878   0.000000
   32        5.266171   0.000000
   33        5.445691   0.000000
   34        5.510683   0.000000
   35        5.573142   0.000000
   36        6.174983   0.000000
   37        6.244932   0.000000
   38        7.626303   0.000000
   39        7.991908   0.000000
   40        9.216754   0.000000
 
  0.9473684E-01  0.0000000E+00  0.0000000E+00  0.2604167E-02
    1      -10.428944   1.000000
    2      -10.375729   1.000000
    3       -4.578639   1.000000
    4       -4.002741   1.000000
    5       -2.317215   1.000000
    6       -1.890027   1.000000
    7       -1.578788   1.000000
    8       -1.553532   1.000000
    9       -1.487785   1.000000
   10       -0.707713   0.999977
   11       -0.418881   0.978780
   12        1.250389   0.000000
   13        1.470105   0.000000
   14        1.503176   0.000000
   15        1.796470   0.000000
   16        1.820303   0.000000
   17        1.887550   0.000000
   18        2.209665   0.000000
   19        2.329977   0.000000
   20        2.441629   0.000000
   21        2.557224   0.000000
   22        3.155819   0.000000
   23        3.204628   0.000000
   24        3.487549   0.000000
   25        3.567066   0.000000
   26        3.688387   0.000000
   27        3.778865   0.000000
   28        4.175412   0.000000
   29        4.287281   0.000000
   30        4.866058   0.000000
   31        5.030348   0.000000
   32        5.257629   0.000000
   33        5.448376   0.000000
   34        5.508579   0.000000
   35        5.573082   0.000000
   36        6.196286   0.000000
   37        6.283111   0.000000
   38        7.646304   0.000000
   39        8.008611   0.000000
   40        9.232588   0.000000
 
  0.1000000E+00  0.0000000E+00  0.0000000E+00  0.2604167E-02
    1      -10.418718   1.000000
    2      -10.365999   1.000000
    3       -4.560847   1.000000
    4       -3.986326   1.000000
    5       -2.339619   1.000000
    6       -1.920683   1.000000
    7       -1.578141   1.000000
    8       -1.553265   1.000000
    9       -1.480044   1.000000
   10       -0.692444   0.999963
   11       -0.412433   0.976349
   12        1.248146   0.000000
   13        1.441067   0.000000
   14        1.480511   0.000000
   15        1.804824   0.000000
   16        1.822098   0.000000
   17        1.899141   0.000000
   18        2.191649   0.000000
   19        2.324872   0.000000
   20        2.436935   0.000000
   21        2.560028   0.000000
   22        3.158940   0.000000
   23        3.210445   0.000000
   24        3.488820   0.000000
   25        3.572662   0.000000
   26        3.705651   0.000000
   27        3.796864   0.000000
   28        4.197565   0.000000
   29        4.315052   0.000000
   30        4.885416   0.000000
   31        5.044477   0.000000
   32        5.250281   0.000000
   33        5.451069   0.000000
   34        5.507894   0.000000
   35        5.572891   0.000000
   36        6.218597   0.000000
   37        6.322351   0.000000
   38        7.667390   0.000000
   39        8.026056   0.000000
   40        9.247651   0.000000
 
  0.1052632E+00  0.0000000E+00  0.0000000E+00  0.2604167E-02
    1      -10.407997   1.000000
    2      -10.355797   1.000000
    3       -4.542174   1.000000
    4       -3.969110   1.000000
    5       -2.362596   1.000000
    6       -1.951997   1.000000
    7       -1.577499   1.000000
    8       -1.553027   1.000000
    9       -1.472311   1.000000
   10       -0.677047   0.999942
   11       -0.405632   0.973535
   12        1.244695   0.000000
   13        1.411716   0.000000
   14        1.457396   0.000000
   15        1.813481   0.000000
   16        1.823975   0.000000
   17        1.911237   0.000000
   18        2.173805   0.000000
   19        2.320347   0.000000
   20        2.432402   0.000000
   21        2.562993   0.000000
   22        3.162362   0.000000
   23        3.216284   0.000000
   24        3.490570   0.000000
   25        3.578326   0.000000
   26        3.723741   0.000000
   27        3.815639   0.000000
   28        4.219937   0.000000
   29        4.343106   0.000000
   30        4.904932   0.000000
   31        5.057027   0.000000
   32        5.244274   0.000000
   33        5.453745   0.000000
   34        5.509008   0.000000
   35        5.572548   0.000000
   36        6.241934   0.000000
   37        6.362542   0.000000
   38        7.689535   0.000000
   39        8.044251   0.000000
   40        9.262981   0.000000
 
  0.1105263E+00  0.0000000E+00  0.0000000E+00  0.2604167E-02
    1      -10.396786   1.000000
    2      -10.345128   1.000000
    3       -4.522635   1.000000
    4       -3.951111   1.000000
    5       -2.386101   1.000000
    6       -1.983906   1.000000
    7       -1.576865   1.000000
    8       -1.552816   1.000000
    9       -1.464593   1.000000
   10       -0.661539   0.999910
   11       -0.398484   0.970281
   12        1.239512   0.000000
   13        1.382392   0.000000
   14        1.434147   0.000000
   15        1.822415   0.000000
   16        1.825931   0.000000
   17        1.923813   0.000000
   18        2.156198   0.000000
   19        2.316463   0.000000
   20        2.428065   0.000000
   21        2.566167   0.000000