 vasp.6.1.1 19Jun20 (build Mar 17 2021 16:41:16) complex                        
  
 executed on             LinuxIFC date 2024.10.24  16:13:53
 running on    8 total cores
 distrk:  each k-point on    8 cores,    1 groups
 distr:  one band on NCORE=   4 cores,    2 groups


--------------------------------------------------------------------------------------------------------


 INCAR:
 POTCAR:    PAW_PBE C 08Apr2002                   
 POTCAR:    PAW_PBE Sc 04Feb2005                  
 POTCAR:    PAW_PBE C 08Apr2002                   
   SHA256 =  253f7b50bb8d59471dbedb8285d89021f4a42ed1a2c5d38a03a736e69125dd95 C/POTCAR              
   COPYR  = (c) Copyright 08Apr2002 Georg Kresse                                                    
   COPYR  = This file is part of the software VASP. Any use, copying, and all other rights are regul
   COPYR  = If you do not have a valid VASP license, you may not use, copy or distribute this file. 
   VRHFIN =C: s2p2                                                                                  
   LEXCH  = PE                                                                                      
   EATOM  =   147.1560 eV,   10.8157 Ry                                                             
                                                                                                    
   TITEL  = PAW_PBE C 08Apr2002                                                                     
   LULTRA =        F    use ultrasoft PP ?                                                          
   IUNSCR =        1    unscreen: 0-lin 1-nonlin 2-no                                               
   RPACOR =    1.200    partial core radius                                                         
   POMASS =   12.011; ZVAL   =    4.000    mass and valenz                                          
   RCORE  =    1.500    outmost cutoff radius                                                       
   RWIGS  =    1.630; RWIGS  =    0.863    wigner-seitz radius (au A)                               
   ENMAX  =  400.000; ENMIN  =  300.000 eV                                                          
   ICORE  =        2    local potential                                                             
   LCOR   =        T    correct aug charges                                                         
   LPAW   =        T    paw PP                                                                      
   EAUG   =  644.873                                                                                
   DEXC   =    0.000                                                                                
   RMAX   =    1.529    core radius for proj-oper                                                   
   RAUG   =    1.300    factor for augmentation sphere                                              
   RDEP   =    1.501    radius for radial grids                                                     
   RDEPT  =    1.300    core radius for aug-charge                                                  
                                                                                                    
   Atomic configuration                                                                             
    4 entries                                                                                       
     n  l   j            E        occ.                                                              
     1  0  0.50      -273.3789   2.0000                                                             
     2  0  0.50       -13.7508   2.0000                                                             
     2  1  0.50        -5.2854   2.0000                                                             
     3  2  1.50        -5.4423   0.0000                                                             
   Description                                                                                      
     l       E           TYP  RCUT    TYP  RCUT                                                     
     0    -13.7508458     23  1.200                                                                 
     0     -8.2022199     23  1.200                                                                 
     1     -5.2854383     23  1.500                                                                 
     1     34.0145650     23  1.500                                                                 
     2     -5.4423304      7  1.500                                                                 
  local pseudopotential read in
  partial core-charges read in
  partial kinetic energy density read in
  atomic valenz-charges read in
  non local Contribution for L=           0  read in
    real space projection operators read in
  non local Contribution for L=           0  read in
    real space projection operators read in
  non local Contribution for L=           1  read in
    real space projection operators read in
  non local Contribution for L=           1  read in
    real space projection operators read in
    PAW grid and wavefunctions read in
 
   number of l-projection  operators is LMAX  =           4
   number of lm-projection operators is LMMAX =           8
 
 POTCAR:    PAW_PBE Sc 04Feb2005                  
   SHA256 =  a7a47f099b907334aaaa7c7612a2589f35183331e88325c9a246f19cecebfe85 Sc/POTCAR             
   COPYR  = (c) Copyright 04Feb2005 Georg Kresse                                                    
   COPYR  = This file is part of the software VASP. Any use, copying, and all other rights are regul
   COPYR  = If you do not have a valid VASP license, you may not use, copy or distribute this file. 
   VRHFIN =Sc: 3p4s3d                                                                               
   LEXCH  = PE                                                                                      
   EATOM  =    44.6420 eV,    3.2811 Ry                                                             
                                                                                                    
   TITEL  = PAW_PBE Sc 04Feb2005                                                                    
   LULTRA =        F    use ultrasoft PP ?                                                          
   IUNSCR =        1    unscreen: 0-lin 1-nonlin 2-no                                               
   RPACOR =    2.000    partial core radius                                                         
   POMASS =   44.956; ZVAL   =    3.000    mass and valenz                                          
   RCORE  =    3.000    outmost cutoff radius                                                       
   RWIGS  =    3.000; RWIGS  =    1.588    wigner-seitz radius (au A)                               
   ENMAX  =  154.763; ENMIN  =  116.072 eV                                                          
   RCLOC  =    1.776    cutoff for local pot                                                        
   LCOR   =        T    correct aug charges                                                         
   LPAW   =        T    paw PP                                                                      
   EAUG   =  301.784                                                                                
   DEXC   =    0.000                                                                                
   RMAX   =    3.066    core radius for proj-oper                                                   
   RAUG   =    1.300    factor for augmentation sphere                                              
   RDEP   =    3.011    radius for radial grids                                                     
   RDEPT  =    2.461    core radius for aug-charge                                                  
                                                                                                    
   Atomic configuration                                                                             
    9 entries                                                                                       
     n  l   j            E        occ.                                                              
     1  0  0.50     -4394.2533   2.0000                                                             
     2  0  0.50      -471.0040   2.0000                                                             
     2  1  1.50      -384.9788   6.0000                                                             
     3  0  0.50       -52.1410   2.0000                                                             
     3  1  1.50       -30.8841   6.0000                                                             
     3  2  2.50        -1.3655   2.0000                                                             
     4  0  0.50        -3.5584   1.0000                                                             
     4  1  0.50        -2.7212   0.0000                                                             
     4  3  2.50        -1.3606   0.0000                                                             
   Description                                                                                      
     l       E           TYP  RCUT    TYP  RCUT                                                     
     2     -1.3655439     23  3.000                                                                 
     2     -2.7261265     23  3.000                                                                 
     0     -3.5583719     23  3.000                                                                 
     0     27.2116520     23  3.000                                                                 
     1     -5.4423304     23  3.000                                                                 
  local pseudopotential read in
  partial core-charges read in
  partial kinetic energy density read in
  atomic valenz-charges read in
  non local Contribution for L=           2  read in
    real space projection operators read in
  non local Contribution for L=           2  read in
    real space projection operators read in
  non local Contribution for L=           0  read in
    real space projection operators read in
  non local Contribution for L=           0  read in
    real space projection operators read in
  non local Contribution for L=           1  read in
    real space projection operators read in
    PAW grid and wavefunctions read in
 
   number of l-projection  operators is LMAX  =           5
   number of lm-projection operators is LMMAX =          15
 
 -----------------------------------------------------------------------------
|                                                                             |
|               ----> ADVICE to this user running VASP <----                  |
|                                                                             |
|     You have a (more or less) 'small supercell' and for smaller cells       |
|     it is recommended to use the reciprocal-space projection scheme!        |
|     The real-space optimization is not efficient for small cells and it     |
|     is also less accurate ...                                               |
|     Therefore, set LREAL=.FALSE. in the INCAR file.                         |
|                                                                             |
 -----------------------------------------------------------------------------

 Optimization of the real space projectors (new method)

 maximal supplied QI-value         = 25.13
 optimisation between [QCUT,QGAM] = [ 12.82, 25.89] = [ 46.01,187.66] Ry 
 Optimized for a Real-space Cutoff    1.05 Angstroem

   l    n(q)    QCUT    max X(q) W(low)/X(q) W(high)/X(q)  e(spline) 
   0      8    12.818   115.676    0.29E-03    0.27E-03    0.18E-06
   0      8    12.818    87.132    0.29E-03    0.27E-03    0.18E-06
   1      8    12.818     4.429    0.50E-03    0.25E-03    0.16E-06
   1      8    12.818     2.733    0.38E-03    0.20E-03    0.14E-06
 Optimization of the real space projectors (new method)

 maximal supplied QI-value         = 12.47
 optimisation between [QCUT,QGAM] = [ 12.47, 26.07] = [ 43.56,190.27] Ry 
 Optimized for a Real-space Cutoff    1.69 Angstroem

   l    n(q)    QCUT    max X(q) W(low)/X(q) W(high)/X(q)  e(spline) 
   2     12    12.472   127.680    0.26E-03    0.98E-04    0.25E-05
   2     12    12.472   113.778    0.26E-03    0.99E-04    0.25E-05
   0     13    12.472    22.778    0.61E-04    0.11E-04    0.26E-05
   0     13    12.472    11.292    0.35E-04    0.74E-05    0.19E-05
   1     13    12.472    11.256    0.79E-05    0.12E-04    0.25E-06
 WARNING: PSMAXN for non-local potential too small
          PSMAXN should be >   13.0615000909685       NTYP=           2
  PAW_PBE C 08Apr2002                   :
 energy of atom  1       EATOM= -147.1560
 kinetic energy error for atom=    0.0045 (will be added to EATOM!!)
  PAW_PBE Sc 04Feb2005                  :
 energy of atom  2       EATOM=  -44.6420
 kinetic energy error for atom=    0.0000 (will be added to EATOM!!)
 
 
 POSCAR: Sc2C_R3m
  positions in direct lattice
  velocities in cartesian coordinates
 exchange correlation table for  LEXCH =        8
   RHO(1)=    0.500       N(1)  =     2000
   RHO(2)=  100.500       N(2)  =     4000

 VTST: version 3.2, (02/03/18)

 CHAIN: initializing optimizer
 
 OPT: Using VASP Dynamics algorithm
 CHAIN: Read ICHAIN            0
 
 POSCAR: Sc2C_R3m
  positions in direct lattice
  velocities in cartesian coordinates
 


--------------------------------------------------------------------------------------------------------


 ion  position               nearest neighbor table
   1  0.333  0.667  0.049-   5 2.29   5 2.29   5 2.29   4 2.36   4 2.36   4 2.36
   2  0.667  0.333  0.272-   3 2.29   3 2.29   3 2.29   6 2.36   6 2.36   6 2.36
   3  0.000  0.000  0.319-   2 2.29   2 2.29   2 2.29   6 3.18   6 3.18   6 3.18
   4  0.667  0.333  0.101-   1 2.36   1 2.36   1 2.36   5 3.18   5 3.18   5 3.18   6 3.54   6 3.54
                             6 3.54
   5  0.000  0.000  0.001-   1 2.29   1 2.29   1 2.29   4 3.18   4 3.18   4 3.18
   6  0.333  0.667  0.219-   2 2.36   2 2.36   2 2.36   3 3.18   3 3.18   3 3.18   4 3.54   4 3.54
                             4 3.54
 
  LATTYP: Found a hexagonal cell.
 ALAT       =     3.3958294391
 C/A-ratio  =     7.3619716326
  
  Lattice vectors:
  
 A1 = (   3.3958294392,   0.0000000000,   0.0000000000)
 A2 = (  -1.6979147196,   2.9408745612,   0.0000000000)
 A3 = (   0.0000000000,   0.0000000000,  25.0000000000)


Analysis of symmetry for initial positions (statically):
=====================================================================
 Subroutine PRICEL returns:
 Original cell was already a primitive cell.
 

 Routine SETGRP: Setting up the symmetry group for a 
 hexagonal supercell.


 Subroutine GETGRP returns: Found 12 space group operations
 (whereof  6 operations were pure point group operations)
 out of a pool of 24 trial point group operations.


The static configuration has the point symmetry C_3v.
 The point group associated with its full space group is D_3d.


Analysis of symmetry for dynamics (positions and initial velocities):
=====================================================================
 Subroutine PRICEL returns:
 Original cell was already a primitive cell.
 

 Routine SETGRP: Setting up the symmetry group for a 
 hexagonal supercell.


 Subroutine GETGRP returns: Found 12 space group operations
 (whereof  6 operations were pure point group operations)
 out of a pool of 24 trial point group operations.


The dynamic configuration has the point symmetry C_3v.
 The point group associated with its full space group is D_3d.


 Subroutine INISYM returns: Found 12 space group operations
 (whereof  6 operations are pure point group operations),
 and found     1 'primitive' translations


----------------------------------------------------------------------------------------

                                     Primitive cell                                     

  volume of cell :     249.6677

  direct lattice vectors                    reciprocal lattice vectors
     3.395829439  0.000000000  0.000000000     0.294478865  0.170017452  0.000000000
    -1.697914720  2.940874561  0.000000000     0.000000000  0.340034904  0.000000000
     0.000000000  0.000000000 25.000000000     0.000000000  0.000000000  0.040000000

  length of vectors
     3.395829439  3.395829439 25.000000000     0.340034904  0.340034904  0.040000000

  position of ions in fractional coordinates (direct lattice)
     0.333333343  0.666666686  0.048655833
     0.666666687  0.333333343  0.271770351
     0.000000000  0.000000000  0.319057618
     0.666666687  0.333333343  0.101280661
     0.000000000  0.000000000  0.001368223
     0.333333343  0.666666686  0.219145184

  ion indices of the primitive-cell ions
   primitive index   ion index
                 1           1
                 2           2
                 3           3
                 4           4
                 5           5
                 6           6

----------------------------------------------------------------------------------------

 
 
 KPOINTS: 38x38x38            Comment             

Automatic generation of k-mesh.
Space group operators:
 irot       det(A)        alpha          n_x          n_y          n_z        tau_x        tau_y        tau_z
    1     1.000000     0.000000     1.000000     0.000000     0.000000     0.000000     0.000000     0.000000
    2     1.000000   120.000000     0.000000     0.000000    -1.000000     0.000000     0.000000     0.000000
    3     1.000000   120.000000     0.000000     0.000000     1.000000     0.000000     0.000000     0.000000
    4    -1.000000   179.999999     1.000000     0.000000     0.000000     0.000000     0.000000     0.000000
    5    -1.000000   180.000000     0.500000    -0.866025     0.000000     0.000000     0.000000     0.000000
    6    -1.000000   180.000000    -0.500000    -0.866025     0.000000     0.000000     0.000000     0.000000
    7    -1.000000     0.000000     1.000000     0.000000     0.000000     0.000000     0.000000     0.320426
    8    -1.000000   120.000000     0.000000     0.000000    -1.000000     0.000000     0.000000     0.320426
    9    -1.000000   120.000000     0.000000     0.000000     1.000000     0.000000     0.000000     0.320426
   10     1.000000   179.999999     1.000000     0.000000     0.000000     0.000000     0.000000     0.320426
   11     1.000000   180.000000     0.500000    -0.866025     0.000000     0.000000     0.000000     0.320426
   12     1.000000   180.000000    -0.500000    -0.866025     0.000000     0.000000     0.000000     0.320426
 TETIRR: Found     76 inequivalent tetrahedra from      864
 
 Subroutine IBZKPT returns following result:
 ===========================================
 
 Found     19 irreducible k-points:
 
 Following reciprocal coordinates:
            Coordinates               Weight
  0.000000  0.000000  0.000000      1.000000
  0.083333  0.000000  0.000000      6.000000
  0.166667 -0.000000  0.000000      6.000000
  0.250000 -0.000000  0.000000      6.000000
  0.333333 -0.000000  0.000000      6.000000
  0.416667 -0.000000  0.000000      6.000000
  0.500000 -0.000000  0.000000      3.000000
  0.083333  0.083333  0.000000      6.000000
  0.166667  0.083333  0.000000     12.000000
  0.250000  0.083333  0.000000     12.000000
  0.333333  0.083333  0.000000     12.000000
  0.416667  0.083333  0.000000     12.000000
  0.166667  0.166667  0.000000      6.000000
  0.250000  0.166667  0.000000     12.000000
  0.333333  0.166667  0.000000     12.000000
  0.416667  0.166667  0.000000      6.000000
  0.250000  0.250000  0.000000      6.000000
  0.333333  0.250000  0.000000     12.000000
  0.333333  0.333333  0.000000      2.000000
 
 Following cartesian coordinates:
            Coordinates               Weight
  0.000000  0.000000  0.000000      1.000000
  0.024540  0.014168  0.000000      6.000000
  0.049080  0.028336  0.000000      6.000000
  0.073620  0.042504  0.000000      6.000000
  0.098160  0.056672  0.000000      6.000000
  0.122700  0.070841  0.000000      6.000000
  0.147239  0.085009  0.000000      3.000000
  0.024540  0.042504  0.000000      6.000000
  0.049080  0.056672  0.000000     12.000000
  0.073620  0.070841  0.000000     12.000000
  0.098160  0.085009  0.000000     12.000000
  0.122700  0.099177  0.000000     12.000000
  0.049080  0.085009  0.000000      6.000000
  0.073620  0.099177  0.000000     12.000000
  0.098160  0.113345  0.000000     12.000000
  0.122700  0.127513  0.000000      6.000000
  0.073620  0.127513  0.000000      6.000000
  0.098160  0.141681  0.000000     12.000000
  0.098160  0.170017  0.000000      2.000000
 


--------------------------------------------------------------------------------------------------------




 Dimension of arrays:
   k-points           NKPTS =     19   k-points in BZ     NKDIM =     19   number of bands    NBANDS=     40
   number of dos      NEDOS =    301   number of ions     NIONS =      6
   non local maximal  LDIM  =      5   non local SUM 2l+1 LMDIM =     15
   total plane-waves  NPLWV =  92160
   max r-space proj   IRMAX =   7476   max aug-charges    IRDMAX=  29200
   dimension x,y,z NGX =    24 NGY =   24 NGZ =  160
   dimension x,y,z NGXF=    48 NGYF=   48 NGZF=  320
   support grid    NGXF=    48 NGYF=   48 NGZF=  320
   ions per type =               2   4
   NGX,Y,Z   is equivalent  to a cutoff of  11.75, 11.75, 10.64 a.u.
   NGXF,Y,Z  is equivalent  to a cutoff of  23.50, 23.50, 21.28 a.u.

 SYSTEM =  TB-Sic                                  
 POSCAR =  Sc2C_R3m                                

 Startparameter for this run:
   NWRITE =      2    write-flag & timer
   PREC   = normal    normal or accurate (medium, high low for compatibility)
   ISTART =      0    job   : 0-new  1-cont  2-samecut
   ICHARG =      2    charge: 1-file 2-atom 10-const
   ISPIN  =      1    spin polarized calculation?
   LNONCOLLINEAR =      F non collinear calculations
   LSORBIT =      F    spin-orbit coupling
   INIWAV =      1    electr: 0-lowe 1-rand  2-diag
   LASPH  =      F    aspherical Exc in radial PAW
   METAGGA=      F    non-selfconsistent MetaGGA calc.

 Electronic Relaxation 1
   ENCUT  =  650.0 eV  47.77 Ry    6.91 a.u.   7.06  7.06 51.97*2*pi/ulx,y,z
   ENINI  =  650.0     initial cutoff
   ENAUG  =  644.9 eV  augmentation charge cutoff
   NELM   =    100;   NELMIN=  2; NELMDL= -5     # of ELM steps 
   EDIFF  = 0.1E-04   stopping-criterion for ELM
   LREAL  =      T    real-space projection
   NLSPLINE    = F    spline interpolate recip. space projectors
   LCOMPAT=      F    compatible to vasp.4.4
   GGA_COMPAT  = T    GGA compatible to vasp.4.4-vasp.4.6
   LMAXPAW     = -100 max onsite density
   LMAXMIX     =    4 max onsite mixed and CHGCAR
   VOSKOWN=      0    Vosko Wilk Nusair interpolation
   ROPT   =   -0.00050  -0.00050
 Ionic relaxation
   EDIFFG = 0.1E-03   stopping-criterion for IOM
   NSW    =      0    number of steps for IOM
   NBLOCK =      1;   KBLOCK =      1    inner block; outer block 
   IBRION =     -1    ionic relax: 0-MD 1-quasi-New 2-CG
   NFREE  =      0    steps in history (QN), initial steepest desc. (CG)
   ISIF   =      2    stress and relaxation
   IWAVPR =     10    prediction:  0-non 1-charg 2-wave 3-comb
   ISYM   =      2    0-nonsym 1-usesym 2-fastsym
   LCORR  =      T    Harris-Foulkes like correction to forces

   POTIM  = 0.5000    time-step for ionic-motion
   TEIN   =    0.0    initial temperature
   TEBEG  =    0.0;   TEEND  =   0.0 temperature during run
   SMASS  =  -3.00    Nose mass-parameter (am)
   estimated Nose-frequenzy (Omega)   =  0.10E-29 period in steps = 0.13E+47 mass=  -0.264E-27a.u.
   SCALEE = 1.0000    scale energy and forces
   NPACO  =    256;   APACO  = 16.0  distance and # of slots for P.C.
   PSTRESS=    0.0 pullay stress

  Mass of Ions in am
   POMASS =  12.01 44.96
  Ionic Valenz
   ZVAL   =   4.00  3.00
  Atomic Wigner-Seitz radii
   RWIGS  =  -1.00 -1.00
  virtual crystal weights 
   VCA    =   1.00  1.00
   NELECT =      20.0000    total number of electrons
   NUPDOWN=      -1.0000    fix difference up-down

 DOS related values:
   EMIN   =  10.00;   EMAX   =-10.00  energy-range for DOS
   EFERMI =   0.00
   ISMEAR =    -5;   SIGMA  =   0.20  broadening in eV -4-tet -1-fermi 0-gaus

 Electronic relaxation 2 (details)
   IALGO  =     68    algorithm
   LDIAG  =      T    sub-space diagonalisation (order eigenvalues)
   LSUBROT=      F    optimize rotation matrix (better conditioning)
   TURBO    =      0    0=normal 1=particle mesh
   IRESTART =      0    0=no restart 2=restart with 2 vectors
   NREBOOT  =      0    no. of reboots
   NMIN     =      0    reboot dimension
   EREF     =   0.00    reference energy to select bands
   IMIX   =      4    mixing-type and parameters
     AMIX     =   0.40;   BMIX     =  1.00
     AMIX_MAG =   1.60;   BMIX_MAG =  1.00
     AMIN     =   0.10
     WC   =   100.;   INIMIX=   1;  MIXPRE=   1;  MAXMIX= -45

 Intra band minimization:
   WEIMIN = 0.0000     energy-eigenvalue tresh-hold
   EBREAK =  0.63E-07  absolut break condition
   DEPER  =   0.30     relativ break condition  

   TIME   =   0.40     timestep for ELM

  volume/ion in A,a.u.               =      41.61       280.81
  Fermi-wavevector in a.u.,A,eV,Ry     =   0.705717  1.333612  6.776202  0.498037
  Thomas-Fermi vector in A             =   1.791304
 
 Write flags
   LWAVE        =      F    write WAVECAR
   LDOWNSAMPLE  =      F    k-point downsampling of WAVECAR
   LCHARG       =      T    write CHGCAR
   LVTOT        =      F    write LOCPOT, total local potential
   LVHAR        =      F    write LOCPOT, Hartree potential only
   LELF         =      F    write electronic localiz. function (ELF)
   LORBIT       =     11    0 simple, 1 ext, 2 COOP (PROOUT), +10 PAW based schemes


 Dipole corrections
   LMONO  =      F    monopole corrections only (constant potential shift)
   LDIPOL =      F    correct potential (dipole corrections)
   IDIPOL =      0    1-x, 2-y, 3-z, 4-all directions 
   EPSILON=  1.0000000 bulk dielectric constant

 LDA+U is selected, type is set to LDAUTYPE =  2
   angular momentum for each species LDAUL =    -1    2
   U (eV)           for each species LDAUU =   0.0  3.0
   J (eV)           for each species LDAUJ =   0.0  0.0
 Exchange correlation treatment:
   GGA     =    PE    GGA type
   LEXCH   =     8    internal setting for exchange type
   VOSKOWN=      0    Vosko Wilk Nusair interpolation
   LHFCALC =     F    Hartree Fock is set to
   LHFONE  =     F    Hartree Fock one center treatment
   AEXX    =    0.0000 exact exchange contribution

 Linear response parameters
   LEPSILON=     F    determine dielectric tensor
   LRPA    =     F    only Hartree local field effects (RPA)
   LNABLA  =     F    use nabla operator in PAW spheres
   LVEL    =     F    velocity operator in full k-point grid
   LINTERFAST=   F  fast interpolation
   KINTER  =     0    interpolate to denser k-point grid
   CSHIFT  =0.1000    complex shift for real part using Kramers Kronig
   OMEGAMAX=  -1.0    maximum frequency
   DEG_THRESHOLD= 0.2000000E-02 threshold for treating states as degnerate
   RTIME   =   -0.100 relaxation time in fs
  (WPLASMAI=    0.000 imaginary part of plasma frequency in eV, 0.658/RTIME)
   DFIELD  = 0.0000000 0.0000000 0.0000000 field for delta impulse in time
 
 Orbital magnetization related:
   ORBITALMAG=     F  switch on orbital magnetization
   LCHIMAG   =     F  perturbation theory with respect to B field
   DQ        =  0.001000  dq finite difference perturbation B field
   LLRAUG    =     F  two centre corrections for induced B field



--------------------------------------------------------------------------------------------------------


 Static calculation
 charge density and potential will be updated during run
 non-spin polarized calculation
 RMM-DIIS sequential band-by-band and
  variant of blocked Davidson during initial phase
 perform sub-space diagonalisation
    before iterative eigenvector-optimisation
 modified Broyden-mixing scheme, WC =      100.0
 initial mixing is a Kerker type mixing with AMIX =  0.4000 and BMIX =      1.0000
 Hartree-type preconditioning will be used
 using additional bands           30
 real space projection scheme for non local part
 use partial core corrections
 calculate Harris-corrections to forces 
   (improved forces if not selfconsistent)
 use gradient corrections 
 use of overlap-Matrix (Vanderbilt PP)
 Fermi weights with tetrahedron method with Bloechl corrections


--------------------------------------------------------------------------------------------------------


  energy-cutoff  :      650.00
  volume of cell :      249.67
      direct lattice vectors                 reciprocal lattice vectors
     3.395829439  0.000000000  0.000000000     0.294478865  0.170017452  0.000000000
    -1.697914720  2.940874561  0.000000000     0.000000000  0.340034904  0.000000000
     0.000000000  0.000000000 25.000000000     0.000000000  0.000000000  0.040000000

  length of vectors
     3.395829439  3.395829439 25.000000000     0.340034904  0.340034904  0.040000000


 
 k-points in units of 2pi/SCALE and weight: 38x38x38            Comment             
   0.00000000  0.00000000  0.00000000       0.007
   0.02453991  0.01416812  0.00000000       0.042
   0.04907981  0.02833624  0.00000000       0.042
   0.07361972  0.04250436  0.00000000       0.042
   0.09815962  0.05667248  0.00000000       0.042
   0.12269953  0.07084061  0.00000000       0.042
   0.14723943  0.08500873  0.00000000       0.021
   0.02453991  0.04250436  0.00000000       0.042
   0.04907981  0.05667248  0.00000000       0.083
   0.07361972  0.07084061  0.00000000       0.083
   0.09815962  0.08500873  0.00000000       0.083
   0.12269953  0.09917685  0.00000000       0.083
   0.04907981  0.08500873  0.00000000       0.042
   0.07361972  0.09917685  0.00000000       0.083
   0.09815962  0.11334497  0.00000000       0.083
   0.12269953  0.12751309  0.00000000       0.042
   0.07361972  0.12751309  0.00000000       0.042
   0.09815962  0.14168121  0.00000000       0.083
   0.09815962  0.17001745  0.00000000       0.014
 
 k-points in reciprocal lattice and weights: 38x38x38            Comment             
   0.00000000  0.00000000  0.00000000       0.007
   0.08333333  0.00000000  0.00000000       0.042
   0.16666667 -0.00000000  0.00000000       0.042
   0.25000000 -0.00000000  0.00000000       0.042
   0.33333333 -0.00000000  0.00000000       0.042
   0.41666667 -0.00000000  0.00000000       0.042
   0.50000000 -0.00000000  0.00000000       0.021
   0.08333333  0.08333333  0.00000000       0.042
   0.16666667  0.08333333  0.00000000       0.083
   0.25000000  0.08333333  0.00000000       0.083
   0.33333333  0.08333333  0.00000000       0.083
   0.41666667  0.08333333  0.00000000       0.083
   0.16666667  0.16666667  0.00000000       0.042
   0.25000000  0.16666667  0.00000000       0.083
   0.33333333  0.16666667  0.00000000       0.083
   0.41666667  0.16666667  0.00000000       0.042
   0.25000000  0.25000000  0.00000000       0.042
   0.33333333  0.25000000  0.00000000       0.083
   0.33333333  0.33333333  0.00000000       0.014
 
 position of ions in fractional coordinates (direct lattice) 
   0.33333334  0.66666669  0.04865583
   0.66666669  0.33333334  0.27177035
   0.00000000  0.00000000  0.31905762
   0.66666669  0.33333334  0.10128066
   0.00000000  0.00000000  0.00136822
   0.33333334  0.66666669  0.21914518
 
 position of ions in cartesian coordinates  (Angst):
  -0.00000000  1.96058310  1.21639582
   1.69791477  0.98029155  6.79425877
   0.00000000  0.00000000  7.97644046
   1.69791477  0.98029155  2.53201653
   0.00000000  0.00000000  0.03420557
  -0.00000000  1.96058310  5.47862960
 


--------------------------------------------------------------------------------------------------------


 k-point   1 :   0.0000 0.0000 0.0000  plane waves:    9337
 k-point   2 :   0.0833 0.0000 0.0000  plane waves:    9319
 k-point   3 :   0.1667-0.0000 0.0000  plane waves:    9346
 k-point   4 :   0.2500-0.0000 0.0000  plane waves:    9380
 k-point   5 :   0.3333-0.0000 0.0000  plane waves:    9368
 k-point   6 :   0.4167-0.0000 0.0000  plane waves:    9392
 k-point   7 :   0.5000-0.0000 0.0000  plane waves:    9404
 k-point   8 :   0.0833 0.0833 0.0000  plane waves:    9329
 k-point   9 :   0.1667 0.0833 0.0000  plane waves:    9370
 k-point  10 :   0.2500 0.0833 0.0000  plane waves:    9386
 k-point  11 :   0.3333 0.0833 0.0000  plane waves:    9401
 k-point  12 :   0.4167 0.0833 0.0000  plane waves:    9414
 k-point  13 :   0.1667 0.1667 0.0000  plane waves:    9405
 k-point  14 :   0.2500 0.1667 0.0000  plane waves:    9419
 k-point  15 :   0.3333 0.1667 0.0000  plane waves:    9422
 k-point  16 :   0.4167 0.1667 0.0000  plane waves:    9425
 k-point  17 :   0.2500 0.2500 0.0000  plane waves:    9407
 k-point  18 :   0.3333 0.2500 0.0000  plane waves:    9434
 k-point  19 :   0.3333 0.3333 0.0000  plane waves:    9429

 maximum and minimum number of plane-waves per node :      2373     2309

 maximum number of plane-waves:      9434
 maximum index in each direction: 
   IXMAX=    7   IYMAX=    7   IZMAX=   51
   IXMIN=   -7   IYMIN=   -7   IZMIN=  -51


 real space projection operators:
  total allocation   :       3604.78 KBytes
  max/ min on nodes  :        906.62        891.09


 parallel 3D FFT for wavefunctions:
    minimum data exchange during FFTs selected (reduces bandwidth)
 parallel 3D FFT for charge:
    minimum data exchange during FFTs selected (reduces bandwidth)


 total amount of memory used by VASP MPI-rank0    62955. kBytes
=======================================================================

   base      :      30000. kBytes
   nonlr-proj:       1879. kBytes
   fftplans  :       6965. kBytes
   grid      :       9584. kBytes
   one-center:         21. kBytes
   wavefun   :      14506. kBytes
 
     INWAV:  cpu time    0.0000: real time    0.0000
 Broyden mixing: mesh for mixing (old mesh)
   NGX = 15   NGY = 15   NGZ =103
  (NGX  = 48   NGY  = 48   NGZ  =320)
  gives a total of  23175 points

 initial charge density was supplied:
 charge density of overlapping atoms calculated
 number of electron      20.0000000 magnetization 
 keeping initial charge density in first step


--------------------------------------------------------------------------------------------------------


 Maximum index for non-local projection operator         1823
 Maximum index for augmentation-charges         3576 (set IRDMAX)


--------------------------------------------------------------------------------------------------------


 First call to EWALD:  gamma=   0.281
 Maximum number of real-space cells 5x 5x 1
 Maximum number of reciprocal cells 2x 2x 9

    FEWALD:  cpu time    0.0012: real time    0.0013


--------------------------------------- Iteration      1(   1)  ---------------------------------------


    POTLOK:  cpu time    0.0758: real time    0.2094
    SETDIJ:  cpu time    0.0037: real time    0.0037
     EDDAV:  cpu time    1.3515: real time    1.3548
 BZINTS: Fermi energy:    9.541775;   20.000000 electrons
         Band energy: 0.655715E+02;  BLOECHL correction:   -0.088139
       DOS:  cpu time    0.0031: real time    0.0031
    --------------------------------------------
      LOOP:  cpu time    1.4342: real time    1.5711

 eigenvalue-minimisations  :  1520
 total energy-change (2. order) : 0.1561685E+03  (-0.5596611E+03)
 number of electron      20.0000000 magnetization 
 augmentation part       20.0000000 magnetization 

 Free energy of the ion-electron system (eV)
  ---------------------------------------------------
  alpha Z        PSCENC =        11.25570991
  Ewald energy   TEWEN  =      2203.49835729
  -Hartree energ DENC   =     -2633.01632931
  -exchange      EXHF   =         0.00000000
  -V(xc)+E(xc)   XCENC  =      -319.41419644
  PAW double counting   =       725.05592156     -369.65349372
  entropy T*S    EENTRO =         0.00000000
  eigenvalues    EBANDS =        65.57149781
  atomic energy  EATOM  =       472.87099920
  Solvation  Ediel_sol  =         0.00000000
  ---------------------------------------------------
  free energy    TOTEN  =       156.16846630 eV

  energy without entropy =      156.16846630  energy(sigma->0) =      156.16846630


--------------------------------------------------------------------------------------------------------




--------------------------------------- Iteration      1(   2)  ---------------------------------------


     EDDAV:  cpu time    1.3213: real time    1.4238
 BZINTS: Fermi energy:    0.687756;   20.000000 electrons
         Band energy:-0.945068E+02;  BLOECHL correction:   -0.047985
       DOS:  cpu time    0.0032: real time    0.0032
    --------------------------------------------
      LOOP:  cpu time    1.3244: real time    1.4270

 eigenvalue-minimisations  :  1520
 total energy-change (2. order) :-0.1600783E+03  (-0.1385415E+03)
 number of electron      20.0000000 magnetization 
 augmentation part       20.0000000 magnetization 

 Free energy of the ion-electron system (eV)
  ---------------------------------------------------
  alpha Z        PSCENC =        11.25570991
  Ewald energy   TEWEN  =      2203.49835729
  -Hartree energ DENC   =     -2633.01632931
  -exchange      EXHF   =         0.00000000
  -V(xc)+E(xc)   XCENC  =      -319.41419644
  PAW double counting   =       725.05592156     -369.65349372
  entropy T*S    EENTRO =         0.00000000
  eigenvalues    EBANDS =       -94.50682829
  atomic energy  EATOM  =       472.87099920
  Solvation  Ediel_sol  =         0.00000000
  ---------------------------------------------------
  free energy    TOTEN  =        -3.90985981 eV

  energy without entropy =       -3.90985981  energy(sigma->0) =       -3.90985981


--------------------------------------------------------------------------------------------------------




--------------------------------------- Iteration      1(   3)  ---------------------------------------


     EDDAV:  cpu time    1.9520: real time    1.9566
 BZINTS: Fermi energy:   -0.322891;   20.000000 electrons
         Band energy:-0.142720E+03;  BLOECHL correction:   -0.043585
       DOS:  cpu time    0.0039: real time    0.0039
    --------------------------------------------
      LOOP:  cpu time    1.9559: real time    1.9605

 eigenvalue-minimisations  :  2440
 total energy-change (2. order) :-0.4821340E+02  (-0.4465435E+02)
 number of electron      20.0000000 magnetization 
 augmentation part       20.0000000 magnetization 

 Free energy of the ion-electron system (eV)
  ---------------------------------------------------
  alpha Z        PSCENC =        11.25570991
  Ewald energy   TEWEN  =      2203.49835729
  -Hartree energ DENC   =     -2633.01632931
  -exchange      EXHF   =         0.00000000
  -V(xc)+E(xc)   XCENC  =      -319.41419644
  PAW double counting   =       725.05592156     -369.65349372
  entropy T*S    EENTRO =         0.00000000
  eigenvalues    EBANDS =      -142.72022500
  atomic energy  EATOM  =       472.87099920
  Solvation  Ediel_sol  =         0.00000000
  ---------------------------------------------------
  free energy    TOTEN  =       -52.12325651 eV

  energy without entropy =      -52.12325651  energy(sigma->0) =      -52.12325651


--------------------------------------------------------------------------------------------------------




--------------------------------------- Iteration      1(   4)  ---------------------------------------


     EDDAV:  cpu time    1.9399: real time    1.9445
 BZINTS: Fermi energy:   -0.467748;   20.000000 electrons
         Band energy:-0.147192E+03;  BLOECHL correction:   -0.035850
       DOS:  cpu time    0.0030: real time    0.0030
    --------------------------------------------
      LOOP:  cpu time    1.9429: real time    1.9475

 eigenvalue-minimisations  :  2480
 total energy-change (2. order) :-0.4471720E+01  (-0.4405796E+01)
 number of electron      20.0000000 magnetization 
 augmentation part       20.0000000 magnetization 

 Free energy of the ion-electron system (eV)
  ---------------------------------------------------
  alpha Z        PSCENC =        11.25570991
  Ewald energy   TEWEN  =      2203.49835729
  -Hartree energ DENC   =     -2633.01632931
  -exchange      EXHF   =         0.00000000
  -V(xc)+E(xc)   XCENC  =      -319.41419644
  PAW double counting   =       725.05592156     -369.65349372
  entropy T*S    EENTRO =         0.00000000
  eigenvalues    EBANDS =      -147.19194537
  atomic energy  EATOM  =       472.87099920
  Solvation  Ediel_sol  =         0.00000000
  ---------------------------------------------------
  free energy    TOTEN  =       -56.59497689 eV

  energy without entropy =      -56.59497689  energy(sigma->0) =      -56.59497689


--------------------------------------------------------------------------------------------------------




--------------------------------------- Iteration      1(   5)  ---------------------------------------


     EDDAV:  cpu time    1.8850: real time    1.8895
 BZINTS: Fermi energy:   -0.471034;   20.000000 electrons
         Band energy:-0.147321E+03;  BLOECHL correction:   -0.035732
       DOS:  cpu time    0.0030: real time    0.0031
    CHARGE:  cpu time    0.0575: real time    0.0577
    MIXING:  cpu time    0.0032: real time    0.0032
    --------------------------------------------
      LOOP:  cpu time    1.9488: real time    1.9535

 eigenvalue-minimisations  :  2424
 total energy-change (2. order) :-0.1293427E+00  (-0.1292580E+00)
 number of electron      20.0000002 magnetization 
 augmentation part        1.1161384 magnetization 

 Broyden mixing:
  rms(total) = 0.22747E+01    rms(broyden)= 0.22747E+01
  rms(prec ) = 0.25006E+01
  weight for this iteration     100.00

 Free energy of the ion-electron system (eV)
  ---------------------------------------------------
  alpha Z        PSCENC =        11.25570991
  Ewald energy   TEWEN  =      2203.49835729
  -Hartree energ DENC   =     -2633.01632931
  -exchange      EXHF   =         0.00000000
  -V(xc)+E(xc)   XCENC  =      -319.41419644
  PAW double counting   =       725.05592156     -369.65349372
  entropy T*S    EENTRO =         0.00000000
  eigenvalues    EBANDS =      -147.32128809
  atomic energy  EATOM  =       472.87099920
  Solvation  Ediel_sol  =         0.00000000
  ---------------------------------------------------
  free energy    TOTEN  =       -56.72431960 eV

  energy without entropy =      -56.72431960  energy(sigma->0) =      -56.72431960


--------------------------------------------------------------------------------------------------------




--------------------------------------- Iteration      1(   6)  ---------------------------------------


    POTLOK:  cpu time    0.0591: real time    0.0592
    SETDIJ:  cpu time    0.0043: real time    0.0043
    EDDIAG:  cpu time    0.2356: real time    0.2361
  RMM-DIIS:  cpu time    1.0941: real time    1.0967
    ORTHCH:  cpu time    0.0267: real time    0.0268
 BZINTS: Fermi energy:    0.134451;   20.000000 electrons
         Band energy:-0.628867E+02;  BLOECHL correction:   -0.015081
       DOS:  cpu time    0.0032: real time    0.0032
    CHARGE:  cpu time    0.0418: real time    0.0419
    MIXING:  cpu time    0.0034: real time    0.0034
    --------------------------------------------
      LOOP:  cpu time    1.4682: real time    1.4717

 eigenvalue-minimisations  :  1986
 total energy-change (2. order) : 0.1689678E+02  (-0.1910509E+01)
 number of electron      20.0000001 magnetization 
 augmentation part        1.8997666 magnetization 

 Broyden mixing:
  rms(total) = 0.76514E+00    rms(broyden)= 0.76510E+00
  rms(prec ) = 0.96655E+00
  weight for this iteration     100.00

 eigenvalues of (default mixing * dielectric matrix)
  average eigenvalue GAMMA=   0.8542
  0.8542

 Free energy of the ion-electron system (eV)
  ---------------------------------------------------
  alpha Z        PSCENC =        11.25570991
  Ewald energy   TEWEN  =      2203.49835729
  -Hartree energ DENC   =     -2704.44210995
  -exchange      EXHF   =         0.00000000
  -V(xc)+E(xc)   XCENC  =      -314.55210663
  PAW double counting   =       982.99765337     -628.56931514
  entropy T*S    EENTRO =         0.00000000
  eigenvalues    EBANDS =       -62.88672442
  atomic energy  EATOM  =       472.87099920
  Solvation  Ediel_sol  =         0.00000000
  ---------------------------------------------------
  free energy    TOTEN  =       -39.82753638 eV

  energy without entropy =      -39.82753638  energy(sigma->0) =      -39.82753638


--------------------------------------------------------------------------------------------------------




--------------------------------------- Iteration      1(   7)  ---------------------------------------


    POTLOK:  cpu time    0.0532: real time    0.0534
    SETDIJ:  cpu time    0.0039: real time    0.0043
    EDDIAG:  cpu time    0.2463: real time    0.2469
  RMM-DIIS:  cpu time    1.1092: real time    1.1118
    ORTHCH:  cpu time    0.0266: real time    0.0267
 BZINTS: Fermi energy:   -0.733401;   20.000000 electrons
         Band energy:-0.902165E+02;  BLOECHL correction:   -0.018662
       DOS:  cpu time    0.0031: real time    0.0032
    CHARGE:  cpu time    0.0440: real time    0.0441
    MIXING:  cpu time    0.0047: real time    0.0048
    --------------------------------------------
      LOOP:  cpu time    1.4912: real time    1.4952

 eigenvalue-minimisations  :  2100
 total energy-change (2. order) :-0.3190521E+00  (-0.2467330E+00)
 number of electron      20.0000001 magnetization 
 augmentation part        1.9976354 magnetization 

 Broyden mixing:
  rms(total) = 0.58042E+00    rms(broyden)= 0.58042E+00
  rms(prec ) = 0.92816E+00
  weight for this iteration     100.00

 eigenvalues of (default mixing * dielectric matrix)
  average eigenvalue GAMMA=   0.7494
  0.9024  0.5964

 Free energy of the ion-electron system (eV)
  ---------------------------------------------------
  alpha Z        PSCENC =        11.25570991
  Ewald energy   TEWEN  =      2203.49835729
  -Hartree energ DENC   =     -2676.80306171
  -exchange      EXHF   =         0.00000000
  -V(xc)+E(xc)   XCENC  =      -314.80063310
  PAW double counting   =      1043.47525508     -689.42672717
  entropy T*S    EENTRO =         0.00000000
  eigenvalues    EBANDS =       -90.21648794
  atomic energy  EATOM  =       472.87099920
  Solvation  Ediel_sol  =         0.00000000
  ---------------------------------------------------
  free energy    TOTEN  =       -40.14658844 eV

  energy without entropy =      -40.14658844  energy(sigma->0) =      -40.14658844


--------------------------------------------------------------------------------------------------------




--------------------------------------- Iteration      1(   8)  ---------------------------------------


    POTLOK:  cpu time    0.0686: real time    0.0687
    SETDIJ:  cpu time    0.0044: real time    0.0045
    EDDIAG:  cpu time    0.2323: real time    0.2328
  RMM-DIIS:  cpu time    1.1568: real time    1.1595
    ORTHCH:  cpu time    0.0279: real time    0.0280
 BZINTS: Fermi energy:   -0.020477;   20.000000 electrons
         Band energy:-0.747357E+02;  BLOECHL correction:   -0.015859
       DOS:  cpu time    0.0030: real time    0.0030
    CHARGE:  cpu time    0.0417: real time    0.0418
    MIXING:  cpu time    0.0028: real time    0.0028
    --------------------------------------------
      LOOP:  cpu time    1.5374: real time    1.5411

 eigenvalue-minimisations  :  2071
 total energy-change (2. order) : 0.1897695E+01  (-0.3955919E-01)
 number of electron      20.0000001 magnetization 
 augmentation part        1.7117339 magnetization 

 Broyden mixing:
  rms(total) = 0.32695E+00    rms(broyden)= 0.32695E+00
  rms(prec ) = 0.34549E+00
  weight for this iteration     100.00

 eigenvalues of (default mixing * dielectric matrix)
  average eigenvalue GAMMA=   1.2340
  2.4800  0.8396  0.3824

 Free energy of the ion-electron system (eV)
  ---------------------------------------------------
  alpha Z        PSCENC =        11.25570991
  Ewald energy   TEWEN  =      2203.49835729
  -Hartree energ DENC   =     -2690.35348735
  -exchange      EXHF   =         0.00000000
  -V(xc)+E(xc)   XCENC  =      -314.68334767
  PAW double counting   =      1085.05598149     -731.15736577
  entropy T*S    EENTRO =         0.00000000
  eigenvalues    EBANDS =       -74.73574030
  atomic energy  EATOM  =       472.87099920
  Solvation  Ediel_sol  =         0.00000000
  ---------------------------------------------------
  free energy    TOTEN  =       -38.24889322 eV

  energy without entropy =      -38.24889322  energy(sigma->0) =      -38.24889322


--------------------------------------------------------------------------------------------------------




--------------------------------------- Iteration      1(   9)  ---------------------------------------


    POTLOK:  cpu time    0.0536: real time    0.0541
    SETDIJ:  cpu time    0.0048: real time    0.0048
    EDDIAG:  cpu time    0.2185: real time    0.2191
  RMM-DIIS:  cpu time    1.0771: real time    1.0797
    ORTHCH:  cpu time    0.0273: real time    0.0274
 BZINTS: Fermi energy:   -0.129113;   20.000000 electrons
         Band energy:-0.713876E+02;  BLOECHL correction:   -0.010083
       DOS:  cpu time    0.0030: real time    0.0030
    CHARGE:  cpu time    0.0432: real time    0.0433
    MIXING:  cpu time    0.0042: real time    0.0042
    --------------------------------------------
      LOOP:  cpu time    1.4317: real time    1.4355

 eigenvalue-minimisations  :  1911
 total energy-change (2. order) : 0.2149431E+00  (-0.4876195E-01)
 number of electron      20.0000001 magnetization 
 augmentation part        1.9710897 magnetization 

 Broyden mixing:
  rms(total) = 0.21235E+00    rms(broyden)= 0.21235E+00
  rms(prec ) = 0.25411E+00
  weight for this iteration     100.00

 eigenvalues of (default mixing * dielectric matrix)
  average eigenvalue GAMMA=   1.0972
  1.6276  1.6276  0.7385  0.3950

 Free energy of the ion-electron system (eV)
  ---------------------------------------------------
  alpha Z        PSCENC =        11.25570991
  Ewald energy   TEWEN  =      2203.49835729
  -Hartree energ DENC   =     -2694.11310944
  -exchange      EXHF   =         0.00000000
  -V(xc)+E(xc)   XCENC  =      -313.55412993
  PAW double counting   =      1253.90279335     -900.50697296
  entropy T*S    EENTRO =         0.00000000
  eigenvalues    EBANDS =       -71.38759754
  atomic energy  EATOM  =       472.87099920
  Solvation  Ediel_sol  =         0.00000000
  ---------------------------------------------------
  free energy    TOTEN  =       -38.03395012 eV

  energy without entropy =      -38.03395012  energy(sigma->0) =      -38.03395012


--------------------------------------------------------------------------------------------------------




--------------------------------------- Iteration      1(  10)  ---------------------------------------


    POTLOK:  cpu time    0.0545: real time    0.0546
    SETDIJ:  cpu time    0.0036: real time    0.0036
    EDDIAG:  cpu time    0.2154: real time    0.2159
  RMM-DIIS:  cpu time    1.0362: real time    1.0387
    ORTHCH:  cpu time    0.0270: real time    0.0271
 BZINTS: Fermi energy:   -0.132331;   20.000000 electrons
         Band energy:-0.759015E+02;  BLOECHL correction:   -0.017639
       DOS:  cpu time    0.0030: real time    0.0030
    CHARGE:  cpu time    0.0441: real time    0.0442
    MIXING:  cpu time    0.0039: real time    0.0039
    --------------------------------------------
      LOOP:  cpu time    1.3877: real time    1.3910

 eigenvalue-minimisations  :  1874
 total energy-change (2. order) : 0.3897264E-01  (-0.1904551E-01)
 number of electron      20.0000001 magnetization 
 augmentation part        1.8632446 magnetization 

 Broyden mixing:
  rms(total) = 0.64119E-01    rms(broyden)= 0.64117E-01
  rms(prec ) = 0.76310E-01
  weight for this iteration     100.00

 eigenvalues of (default mixing * dielectric matrix)
  average eigenvalue GAMMA=   1.2463
  2.0839  2.0839  0.3965  0.6588  1.0085

 Free energy of the ion-electron system (eV)
  ---------------------------------------------------
  alpha Z        PSCENC =        11.25570991
  Ewald energy   TEWEN  =      2203.49835729
  -Hartree energ DENC   =     -2689.16906948
  -exchange      EXHF   =         0.00000000
  -V(xc)+E(xc)   XCENC  =      -314.00163246
  PAW double counting   =      1192.25560630     -838.80345319
  entropy T*S    EENTRO =         0.00000000
  eigenvalues    EBANDS =       -75.90149506
  atomic energy  EATOM  =       472.87099920
  Solvation  Ediel_sol  =         0.00000000
  ---------------------------------------------------
  free energy    TOTEN  =       -37.99497748 eV

  energy without entropy =      -37.99497748  energy(sigma->0) =      -37.99497748


--------------------------------------------------------------------------------------------------------




--------------------------------------- Iteration      1(  11)  ---------------------------------------


    POTLOK:  cpu time    0.0519: real time    0.0521
    SETDIJ:  cpu time    0.0035: real time    0.0035
    EDDIAG:  cpu time    0.2246: real time    0.2251
  RMM-DIIS:  cpu time    1.1955: real time    1.1983
    ORTHCH:  cpu time    0.0246: real time    0.0247
 BZINTS: Fermi energy:   -0.117738;   20.000000 electrons
         Band energy:-0.741757E+02;  BLOECHL correction:   -0.016731
       DOS:  cpu time    0.0032: real time    0.0032
    CHARGE:  cpu time    0.0416: real time    0.0417
    MIXING:  cpu time    0.0048: real time    0.0048
    --------------------------------------------
      LOOP:  cpu time    1.5496: real time    1.5533

 eigenvalue-minimisations  :  2354
 total energy-change (2. order) : 0.1295473E-01  (-0.3966055E-02)
 number of electron      20.0000001 magnetization 
 augmentation part        1.9050377 magnetization 

 Broyden mixing:
  rms(total) = 0.18655E-01    rms(broyden)= 0.18655E-01
  rms(prec ) = 0.23168E-01
  weight for this iteration     100.00

 eigenvalues of (default mixing * dielectric matrix)
  average eigenvalue GAMMA=   1.2907
  2.2429  2.2429  1.0955  1.0955  0.3956  0.6715

 Free energy of the ion-electron system (eV)
  ---------------------------------------------------
  alpha Z        PSCENC =        11.25570991
  Ewald energy   TEWEN  =      2203.49835729
  -Hartree energ DENC   =     -2690.95142462
  -exchange      EXHF   =         0.00000000
  -V(xc)+E(xc)   XCENC  =      -313.80059450
  PAW double counting   =      1200.11681756     -846.79619294
  entropy T*S    EENTRO =         0.00000000
  eigenvalues    EBANDS =       -74.17569463
  atomic energy  EATOM  =       472.87099920
  Solvation  Ediel_sol  =         0.00000000
  ---------------------------------------------------
  free energy    TOTEN  =       -37.98202275 eV

  energy without entropy =      -37.98202275  energy(sigma->0) =      -37.98202275


--------------------------------------------------------------------------------------------------------




--------------------------------------- Iteration      1(  12)  ---------------------------------------


    POTLOK:  cpu time    0.0679: real time    0.0680
    SETDIJ:  cpu time    0.0034: real time    0.0034
    EDDIAG:  cpu time    0.2412: real time    0.2418
  RMM-DIIS:  cpu time    1.2271: real time    1.2300
    ORTHCH:  cpu time    0.0265: real time    0.0266
 BZINTS: Fermi energy:   -0.102588;   20.000000 electrons
         Band energy:-0.737692E+02;  BLOECHL correction:   -0.015650
       DOS:  cpu time    0.0032: real time    0.0032
    CHARGE:  cpu time    0.0430: real time    0.0431
    MIXING:  cpu time    0.0037: real time    0.0037
    --------------------------------------------
      LOOP:  cpu time    1.6161: real time    1.6199

 eigenvalue-minimisations  :  2413
 total energy-change (2. order) : 0.6741636E-03  (-0.3560558E-03)
 number of electron      20.0000001 magnetization 
 augmentation part        1.9000858 magnetization 

 Broyden mixing:
  rms(total) = 0.10415E-01    rms(broyden)= 0.10415E-01
  rms(prec ) = 0.11016E-01
  weight for this iteration     100.00

 eigenvalues of (default mixing * dielectric matrix)
  average eigenvalue GAMMA=   1.4539
  2.9136  2.0820  2.0820  0.3955  1.0184  1.0184  0.6673

 Free energy of the ion-electron system (eV)
  ---------------------------------------------------
  alpha Z        PSCENC =        11.25570991
  Ewald energy   TEWEN  =      2203.49835729
  -Hartree energ DENC   =     -2691.33349178
  -exchange      EXHF   =         0.00000000
  -V(xc)+E(xc)   XCENC  =      -313.77904434
  PAW double counting   =      1196.97968582     -843.70438802
  entropy T*S    EENTRO =         0.00000000
  eigenvalues    EBANDS =       -73.76917667
  atomic energy  EATOM  =       472.87099920
  Solvation  Ediel_sol  =         0.00000000
  ---------------------------------------------------
  free energy    TOTEN  =       -37.98134859 eV

  energy without entropy =      -37.98134859  energy(sigma->0) =      -37.98134859


--------------------------------------------------------------------------------------------------------




--------------------------------------- Iteration      1(  13)  ---------------------------------------


    POTLOK:  cpu time    0.0568: real time    0.0569
    SETDIJ:  cpu time    0.0034: real time    0.0035
    EDDIAG:  cpu time    0.2156: real time    0.2161
  RMM-DIIS:  cpu time    1.2727: real time    1.2757
    ORTHCH:  cpu time    0.0243: real time    0.0244
 BZINTS: Fermi energy:   -0.098289;   20.000000 electrons
         Band energy:-0.737707E+02;  BLOECHL correction:   -0.015917
       DOS:  cpu time    0.0031: real time    0.0031
    CHARGE:  cpu time    0.0388: real time    0.0389
    MIXING:  cpu time    0.0044: real time    0.0044
    --------------------------------------------
      LOOP:  cpu time    1.6191: real time    1.6229

 eigenvalue-minimisations  :  2291
 total energy-change (2. order) :-0.5676316E-03  (-0.5485734E-04)
 number of electron      20.0000001 magnetization 
 augmentation part        1.9036664 magnetization 

 Broyden mixing:
  rms(total) = 0.39629E-02    rms(broyden)= 0.39628E-02
  rms(prec ) = 0.50926E-02
  weight for this iteration     100.00

 eigenvalues of (default mixing * dielectric matrix)
  average eigenvalue GAMMA=   1.4343
  2.9219  2.2320  2.2320  0.3955  0.6681  1.0370  1.0370  0.9509

 Free energy of the ion-electron system (eV)
  ---------------------------------------------------
  alpha Z        PSCENC =        11.25570991
  Ewald energy   TEWEN  =      2203.49835729
  -Hartree energ DENC   =     -2691.32757023
  -exchange      EXHF   =         0.00000000
  -V(xc)+E(xc)   XCENC  =      -313.75977356
  PAW double counting   =      1193.39628381     -840.14526388
  entropy T*S    EENTRO =         0.00000000
  eigenvalues    EBANDS =       -73.77065876
  atomic energy  EATOM  =       472.87099920
  Solvation  Ediel_sol  =         0.00000000
  ---------------------------------------------------
  free energy    TOTEN  =       -37.98191622 eV

  energy without entropy =      -37.98191622  energy(sigma->0) =      -37.98191622


--------------------------------------------------------------------------------------------------------




--------------------------------------- Iteration      1(  14)  ---------------------------------------


    POTLOK:  cpu time    0.0642: real time    0.0643
    SETDIJ:  cpu time    0.0043: real time    0.0043
    EDDIAG:  cpu time    0.2304: real time    0.2310
  RMM-DIIS:  cpu time    1.3099: real time    1.3130
    ORTHCH:  cpu time    0.0245: real time    0.0245
 BZINTS: Fermi energy:   -0.092577;   20.000000 electrons
         Band energy:-0.735680E+02;  BLOECHL correction:   -0.015669
       DOS:  cpu time    0.0031: real time    0.0031
    CHARGE:  cpu time    0.0404: real time    0.0405
    MIXING:  cpu time    0.0038: real time    0.0039
    --------------------------------------------
      LOOP:  cpu time    1.6806: real time    1.6846

 eigenvalue-minimisations  :  2333
 total energy-change (2. order) : 0.2051222E-03  (-0.1315710E-04)
 number of electron      20.0000001 magnetization 
 augmentation part        1.9042601 magnetization 

 Broyden mixing:
  rms(total) = 0.13201E-02    rms(broyden)= 0.13201E-02
  rms(prec ) = 0.17632E-02
  weight for this iteration     100.00

 eigenvalues of (default mixing * dielectric matrix)
  average eigenvalue GAMMA=   1.4898
  2.8104  2.8104  1.8734  1.8734  0.3955  0.6681  1.0374  1.0374  0.9021

 Free energy of the ion-electron system (eV)
  ---------------------------------------------------
  alpha Z        PSCENC =        11.25570991
  Ewald energy   TEWEN  =      2203.49835729
  -Hartree energ DENC   =     -2691.53434813
  -exchange      EXHF   =         0.00000000
  -V(xc)+E(xc)   XCENC  =      -313.75329173
  PAW double counting   =      1192.56595242     -839.31712947
  entropy T*S    EENTRO =         0.00000000
  eigenvalues    EBANDS =       -73.56796058
  atomic energy  EATOM  =       472.87099920
  Solvation  Ediel_sol  =         0.00000000
  ---------------------------------------------------
  free energy    TOTEN  =       -37.98171109 eV

  energy without entropy =      -37.98171109  energy(sigma->0) =      -37.98171109


--------------------------------------------------------------------------------------------------------




--------------------------------------- Iteration      1(  15)  ---------------------------------------


    POTLOK:  cpu time    0.0589: real time    0.0930
    SETDIJ:  cpu time    0.0049: real time    0.0054
    EDDIAG:  cpu time    0.2205: real time    0.2210
  RMM-DIIS:  cpu time    1.1008: real time    1.1034
    ORTHCH:  cpu time    0.0267: real time    0.0302
 BZINTS: Fermi energy:   -0.087253;   20.000000 electrons
         Band energy:-0.734677E+02;  BLOECHL correction:   -0.015721
       DOS:  cpu time    0.0032: real time    0.0032
    CHARGE:  cpu time    0.0397: real time    0.0398
    MIXING:  cpu time    0.0040: real time    0.0040
    --------------------------------------------
      LOOP:  cpu time    1.4587: real time    1.5001

 eigenvalue-minimisations  :  1941
 total energy-change (2. order) :-0.3911323E-04  (-0.3078270E-05)
 number of electron      20.0000001 magnetization 
 augmentation part        1.9033062 magnetization 

 Broyden mixing:
  rms(total) = 0.98850E-03    rms(broyden)= 0.98850E-03
  rms(prec ) = 0.11590E-02
  weight for this iteration     100.00

 eigenvalues of (default mixing * dielectric matrix)
  average eigenvalue GAMMA=   1.5065
  2.9722  2.9722  2.0715  2.0715  0.3955  0.6685  1.0566  1.0566  0.9004  0.9004

 Free energy of the ion-electron system (eV)
  ---------------------------------------------------
  alpha Z        PSCENC =        11.25570991
  Ewald energy   TEWEN  =      2203.49835729
  -Hartree energ DENC   =     -2691.63439974
  -exchange      EXHF   =         0.00000000
  -V(xc)+E(xc)   XCENC  =      -313.75623104
  PAW double counting   =      1191.52916920     -838.27761420
  entropy T*S    EENTRO =         0.00000000
  eigenvalues    EBANDS =       -73.46774082
  atomic energy  EATOM  =       472.87099920
  Solvation  Ediel_sol  =         0.00000000
  ---------------------------------------------------
  free energy    TOTEN  =       -37.98175021 eV

  energy without entropy =      -37.98175021  energy(sigma->0) =      -37.98175021


--------------------------------------------------------------------------------------------------------




--------------------------------------- Iteration      1(  16)  ---------------------------------------


    POTLOK:  cpu time    0.0512: real time    0.0521
    SETDIJ:  cpu time    0.0037: real time    0.0044
    EDDIAG:  cpu time    0.2432: real time    0.2438
  RMM-DIIS:  cpu time    0.9180: real time    0.9202
    ORTHCH:  cpu time    0.0263: real time    0.0263
 BZINTS: Fermi energy:   -0.084962;   20.000000 electrons
         Band energy:-0.734216E+02;  BLOECHL correction:   -0.015723
       DOS:  cpu time    0.0032: real time    0.0032
    CHARGE:  cpu time    0.0477: real time    0.0478
    MIXING:  cpu time    0.0044: real time    0.0044
    --------------------------------------------
      LOOP:  cpu time    1.2976: real time    1.3022

 eigenvalue-minimisations  :  1673
 total energy-change (2. order) :-0.1509323E-04  (-0.8687063E-06)
 number of electron      20.0000001 magnetization 
 augmentation part        1.9037129 magnetization 

 Broyden mixing:
  rms(total) = 0.41264E-03    rms(broyden)= 0.41264E-03
  rms(prec ) = 0.57290E-03
  weight for this iteration     100.00

 eigenvalues of (default mixing * dielectric matrix)
  average eigenvalue GAMMA=   1.6152
  3.9519  2.5853  2.3200  2.3200  0.3955  1.3779  0.6683  1.1574  1.0732  0.9588
  0.9588

 Free energy of the ion-electron system (eV)
  ---------------------------------------------------
  alpha Z        PSCENC =        11.25570991
  Ewald energy   TEWEN  =      2203.49835729
  -Hartree energ DENC   =     -2691.68259098
  -exchange      EXHF   =         0.00000000
  -V(xc)+E(xc)   XCENC  =      -313.75446611
  PAW double counting   =      1191.75070247     -838.49886915
  entropy T*S    EENTRO =         0.00000000
  eigenvalues    EBANDS =       -73.42160792
  atomic energy  EATOM  =       472.87099920
  Solvation  Ediel_sol  =         0.00000000
  ---------------------------------------------------
  free energy    TOTEN  =       -37.98176530 eV

  energy without entropy =      -37.98176530  energy(sigma->0) =      -37.98176530


--------------------------------------------------------------------------------------------------------




--------------------------------------- Iteration      1(  17)  ---------------------------------------


    POTLOK:  cpu time    0.0660: real time    0.0662
    SETDIJ:  cpu time    0.0044: real time    0.0050
    EDDIAG:  cpu time    0.2401: real time    0.2407
  RMM-DIIS:  cpu time    0.8854: real time    0.8875
    ORTHCH:  cpu time    0.0243: real time    0.0244
 BZINTS: Fermi energy:   -0.082313;   20.000000 electrons
         Band energy:-0.733737E+02;  BLOECHL correction:   -0.015697
       DOS:  cpu time    0.0032: real time    0.0032
    --------------------------------------------
      LOOP:  cpu time    1.2234: real time    1.2268

 eigenvalue-minimisations  :  1577
 total energy-change (2. order) : 0.6383051E-05  (-0.3745947E-06)
 number of electron      20.0000001 magnetization 
 augmentation part        1.9037129 magnetization 

 Free energy of the ion-electron system (eV)
  ---------------------------------------------------
  alpha Z        PSCENC =        11.25570991
  Ewald energy   TEWEN  =      2203.49835729
  -Hartree energ DENC   =     -2691.73094989
  -exchange      EXHF   =         0.00000000
  -V(xc)+E(xc)   XCENC  =      -313.75395507
  PAW double counting   =      1191.71852868     -838.46678617
  entropy T*S    EENTRO =         0.00000000
  eigenvalues    EBANDS =       -73.37366288
  atomic energy  EATOM  =       472.87099920
  Solvation  Ediel_sol  =         0.00000000
  ---------------------------------------------------
  free energy    TOTEN  =       -37.98175892 eV

  energy without entropy =      -37.98175892  energy(sigma->0) =      -37.98175892


--------------------------------------------------------------------------------------------------------




 average (electrostatic) potential at core
  the test charge radii are     0.6991  1.3152
  (the norm of the test charge is              1.0000)
       1 -53.7545       2 -53.7542       3 -47.5194       4 -47.3304       5 -47.5197
       6 -47.3303
 
 
 
 E-fermi :  -0.0823     XC(G=0):  -5.2047     alpha+bet : -5.1009


 k-point     1 :       0.0000    0.0000    0.0000
  band No.  band energies     occupation 
      1     -10.5212      2.00000
      2     -10.4636      2.00000
      3      -4.7379      2.00000
      4      -4.1503      2.00000
      5      -2.0826      2.00000
      6      -1.5866      2.00000
      7      -1.5866      2.00000
      8      -1.5581      2.00000
      9      -1.5581      2.00000
     10      -0.8927      2.00000
     11      -0.4742      2.00000
     12       1.2472      0.00000
     13       1.7175      0.00000
     14       1.7175      0.00000
     15       1.7815      0.00000
     16       1.7815      0.00000
     17       1.7891      0.00000
     18       2.4381      0.00000
     19       2.4381      0.00000
     20       2.5067      0.00000
     21       2.5067      0.00000
     22       3.1403      0.00000
     23       3.1403      0.00000
     24       3.5061      0.00000
     25       3.5061      0.00000
     26       3.5212      0.00000
     27       3.6080      0.00000
     28       3.9257      0.00000
     29       3.9798      0.00000
     30       4.6819      0.00000
     31       4.8147      0.00000
     32       5.4182      0.00000
     33       5.4182      0.00000
     34       5.5686      0.00000
     35       5.5686      0.00000
     36       5.8502      0.00000
     37       5.9974      0.00000
     38       7.4558      0.00000
     39       7.8495      0.00000
     40       9.0945      0.00000

 k-point     2 :       0.0833    0.0000    0.0000
  band No.  band energies     occupation 
      1     -10.4499      2.00000
      2     -10.3957      2.00000
      3      -4.6145      2.00000
      4      -4.0359      2.00000
      5      -2.2712      2.00000
      6      -1.8267      2.00000
      7      -1.5807      2.00000
      8      -1.5547      2.00000
      9      -1.5049      2.00000
     10      -0.7406      2.00000
     11      -0.4320      2.00000
     12       1.2524      0.00000
     13       1.5305      0.00000
     14       1.5496      0.00000
     15       1.7794      0.00000
     16       1.8165      0.00000
     17       1.8641      0.00000
     18       2.2487      0.00000
     19       2.3425      0.00000
     20       2.4520      0.00000
     21       2.5513      0.00000
     22       3.1500      0.00000
     23       3.1921      0.00000
     24       3.4862      0.00000
     25       3.5552      0.00000
     26       3.6515      0.00000
     27       3.7395      0.00000
     28       4.1282      0.00000
     29       4.2283      0.00000
     30       4.8294      0.00000
     31       4.9943      0.00000
     32       5.2772      0.00000
     33       5.4423      0.00000
     34       5.5140      0.00000
     35       5.5728      0.00000
     36       6.1510      0.00000
     37       6.2016      0.00000
     38       7.6002      0.00000
     39       7.9740      0.00000
     40       9.6620      0.00000

 k-point     3 :       0.1667   -0.0000    0.0000
  band No.  band energies     occupation 
      1     -10.2501      2.00000
      2     -10.2055      2.00000
      3      -4.2655      2.00000
      4      -3.7159      2.00000
      5      -2.6589      2.00000
      6      -2.3483      2.00000
      7      -1.5726      2.00000
      8      -1.5543      2.00000
      9      -1.3841      2.00000
     10      -0.4928      2.00000
     11      -0.3044      2.00000
     12       0.9767      0.00000
     13       1.0836      0.00000
     14       1.2966      0.00000
     15       1.8512      0.00000
     16       1.9279      0.00000
     17       1.9967      0.00000
     18       2.0790      0.00000
     19       2.3316      0.00000
     20       2.4035      0.00000
     21       2.6251      0.00000
     22       3.2188      0.00000
     23       3.2769      0.00000
     24       3.5460      0.00000
     25       3.6432      0.00000
     26       3.9891      0.00000
     27       4.0800      0.00000
     28       4.4789      0.00000
     29       4.6603      0.00000
     30       4.9588      0.00000
     31       5.1730      0.00000
     32       5.3167      0.00000
     33       5.4732      0.00000
     34       5.5512      0.00000
     35       5.7205      0.00000
     36       6.5829      0.00000
     37       6.8745      0.00000
     38       8.0060      0.00000
     39       8.2903      0.00000
     40       9.0558      0.00000

 k-point     4 :       0.2500   -0.0000    0.0000
  band No.  band energies     occupation 
      1      -9.9643      2.00000
      2      -9.9332      2.00000
      3      -3.7959      2.00000
      4      -3.2978      2.00000
      5      -3.0386      2.00000
      6      -2.8568      2.00000
      7      -1.5803      2.00000
      8      -1.5740      2.00000
      9      -1.2578      2.00000
     10      -0.2405      2.12559
     11      -0.1398      1.87065
     12       0.4491      0.00000
     13       0.6004      0.00000
     14       1.1758      0.00000
     15       1.8995      0.00000
     16       1.9465      0.00000
     17       2.0973      0.00000
     18       2.3281      0.00000
     19       2.4929      0.00000
     20       2.6071      0.00000
     21       2.8511      0.00000
     22       3.3103      0.00000
     23       3.3139      0.00000
     24       3.6454      0.00000
     25       3.7092      0.00000
     26       4.4411      0.00000
     27       4.5203      0.00000
     28       4.6699      0.00000
     29       4.7666      0.00000
     30       5.0258      0.00000
     31       5.3538      0.00000
     32       5.3727      0.00000
     33       5.4674      0.00000
     34       5.9184      0.00000
     35       6.3221      0.00000
     36       7.1343      0.00000
     37       7.5297      0.00000
     38       7.9776      0.00000
     39       8.5005      0.00000
     40       8.5528      0.00000

 k-point     5 :       0.3333   -0.0000    0.0000
  band No.  band energies     occupation 
      1      -9.6609      2.00000
      2      -9.6433      2.00000
      3      -3.7100      2.00000
      4      -3.4690      2.00000
      5      -2.9037      2.00000
      6      -2.6879      2.00000
      7      -1.6152      2.00000
      8      -1.6066      2.00000
      9      -1.1033      2.00000
     10      -0.0863      1.91078
     11      -0.0204     -0.04320
     12       0.1360      0.00000
     13       0.2542      0.00000
     14       0.9779      0.00000
     15       2.0305      0.00000
     16       2.0921      0.00000
     17       2.3238      0.00000
     18       2.6262      0.00000
     19       2.7284      0.00000
     20       3.0359      0.00000
     21       3.2027      0.00000
     22       3.3217      0.00000
     23       3.3410      0.00000
     24       3.6731      0.00000
     25       3.7565      0.00000
     26       4.4328      0.00000
     27       4.6337      0.00000
     28       4.7377      0.00000
     29       5.0694      0.00000
     30       5.1257      0.00000
     31       5.2890      0.00000
     32       5.6270      0.00000
     33       5.8818      0.00000
     34       6.5351      0.00000
     35       6.8019      0.00000
     36       7.0299      0.00000
     37       7.3146      0.00000
     38       7.6804      0.00000
     39       8.1242      0.00000
     40       8.7573      0.00000

 k-point     6 :       0.4167   -0.0000    0.0000
  band No.  band energies     occupation 
      1      -9.4253      2.00000
      2      -9.4173      2.00000
      3      -3.9173      2.00000
      4      -3.7983      2.00000
      5      -2.4604      2.00000
      6      -2.3584      2.00000
      7      -1.6560      2.00000
      8      -1.6366      2.00000
      9      -0.8874      2.00000
     10      -0.2724      2.00000
     11      -0.1164      1.50104
     12       0.2392      0.00000
     13       0.2974      0.00000
     14       0.7992      0.00000
     15       2.2256      0.00000
     16       2.2678      0.00000
     17       2.5675      0.00000
     18       2.9575      0.00000
     19       3.0267      0.00000
     20       3.2837      0.00000
     21       3.3022      0.00000
     22       3.3825      0.00000
     23       3.5621      0.00000
     24       3.6723      0.00000
     25       3.8685      0.00000
     26       4.1525      0.00000
     27       4.6449      0.00000
     28       4.6596      0.00000
     29       4.7804      0.00000
     30       5.0327      0.00000
     31       5.3516      0.00000
     32       6.2145      0.00000
     33       6.2787      0.00000
     34       6.3699      0.00000
     35       6.6092      0.00000
     36       7.2379      0.00000
     37       7.4238      0.00000
     38       8.0589      0.00000
     39       8.5854      0.00000
     40       9.0492      0.00000

 k-point     7 :       0.5000   -0.0000    0.0000
  band No.  band energies     occupation 
      1      -9.3357      2.00000
      2      -9.3311      2.00000
      3      -3.9990      2.00000
      4      -3.9247      2.00000
      5      -2.2841      2.00000
      6      -2.2467      2.00000
      7      -1.6729      2.00000
      8      -1.6495      2.00000
      9      -0.7007      2.00000
     10      -0.3581      2.00000
     11      -0.2527      2.00000
     12       0.3103      0.00000
     13       0.3868      0.00000
     14       0.7277      0.00000
     15       2.3151      0.00000
     16       2.3483      0.00000
     17       2.6748      0.00000
     18       3.1502      0.00000
     19       3.2001      0.00000
     20       3.2506      0.00000
     21       3.3382      0.00000
     22       3.3953      0.00000
     23       3.6701      0.00000
     24       3.7790      0.00000
     25       4.0023      0.00000
     26       4.0102      0.00000
     27       4.3793      0.00000
     28       4.6464      0.00000
     29       4.6757      0.00000
     30       4.8886      0.00000
     31       5.3454      0.00000
     32       5.9291      0.00000
     33       6.1976      0.00000
     34       6.5861      0.00000
     35       7.1072      0.00000
     36       7.6312      0.00000
     37       7.9083      0.00000
     38       7.9518      0.00000
     39       8.7657      0.00000
     40       8.9141      0.00000

 k-point     8 :       0.0833    0.0833    0.0000
  band No.  band energies     occupation 
      1     -10.3143      2.00000
      2     -10.2666      2.00000
      3      -4.3772      2.00000
      4      -3.8178      2.00000
      5      -2.5407      2.00000
      6      -2.1890      2.00000
      7      -1.5924      2.00000
      8      -1.5866      2.00000
      9      -1.3966      2.00000
     10      -0.5537      2.00000
     11      -0.3359      2.00000
     12       1.1607      0.00000
     13       1.2141      0.00000
     14       1.2854      0.00000
     15       1.7942      0.00000
     16       1.8816      0.00000
     17       1.9954      0.00000
     18       2.1620      0.00000
     19       2.2777      0.00000
     20       2.3291      0.00000
     21       2.6170      0.00000
     22       3.2106      0.00000
     23       3.2704      0.00000
     24       3.5700      0.00000
     25       3.5874      0.00000
     26       3.8812      0.00000
     27       3.9764      0.00000
     28       4.3821      0.00000
     29       4.5500      0.00000
     30       5.0609      0.00000
     31       5.1046      0.00000
     32       5.1737      0.00000
     33       5.4859      0.00000
     34       5.5696      0.00000
     35       5.5888      0.00000
     36       6.4610      0.00000
     37       6.6736      0.00000
     38       7.8836      0.00000
     39       8.1977      0.00000
     40       9.4786      0.00000

 k-point     9 :       0.1667    0.0833    0.0000
  band No.  band energies     occupation 
[...]
      2      -9.5389      2.00000
      3      -3.5337      2.00000
      4      -3.3660      2.00000
      5      -2.8083      2.00000
      6      -2.5705      2.00000
      7      -2.0436      2.00000
      8      -2.0098      2.00000
      9      -0.9399      2.00000
     10      -0.0527      0.08312
     11       0.0127      0.00000
     12       0.4864      0.00000
     13       0.7330      0.00000
     14       0.8772      0.00000
     15       1.3532      0.00000
     16       1.8484      0.00000
     17       2.2869      0.00000
     18       2.4550      0.00000
     19       3.0307      0.00000
     20       3.0853      0.00000
     21       3.1412      0.00000
     22       3.5095      0.00000
     23       3.6658      0.00000
     24       3.9966      0.00000
     25       4.2372      0.00000
     26       4.5104      0.00000
     27       4.6163      0.00000
     28       4.7836      0.00000
     29       4.8034      0.00000
     30       4.9018      0.00000
     31       5.3074      0.00000
     32       5.9848      0.00000
     33       6.0655      0.00000
     34       6.7453      0.00000
     35       7.0447      0.00000
     36       7.1347      0.00000
     37       7.5964      0.00000
     38       7.7977      0.00000
     39       8.0339      0.00000
     40       8.3742      0.00000

 k-point    15 :       0.3333    0.1667    0.0000
  band No.  band energies     occupation 
      1      -9.3503      2.00000
      2      -9.3441      2.00000
      3      -3.6685      2.00000
      4      -3.5802      2.00000
      5      -2.4104      2.00000
      6      -2.2872      2.00000
      7      -2.1606      2.00000
      8      -2.1429      2.00000
      9      -0.7491      2.00000
     10      -0.0462      0.35942
     11       0.0781     -0.03764
     12       0.4253      0.00000
     13       0.4996      0.00000
     14       0.9526      0.00000
     15       1.6887      0.00000
     16       1.8838      0.00000
     17       2.4277      0.00000
     18       2.5691      0.00000
     19       3.1041      0.00000
     20       3.3649      0.00000
     21       3.4140      0.00000
     22       3.5972      0.00000
     23       3.9158      0.00000
     24       3.9503      0.00000
     25       4.2624      0.00000
     26       4.3447      0.00000
     27       4.4727      0.00000
     28       4.5715      0.00000
     29       4.8230      0.00000
     30       4.9577      0.00000
     31       5.4859      0.00000
     32       6.3983      0.00000
     33       6.4762      0.00000
     34       6.6282      0.00000
     35       6.9391      0.00000
     36       7.4144      0.00000
     37       7.5459      0.00000
     38       7.7597      0.00000
     39       8.1042      0.00000
     40       8.5542      0.00000

 k-point    16 :       0.4167    0.1667    0.0000
  band No.  band energies     occupation 
      1      -9.2742      2.00000
      2      -9.2709      2.00000
      3      -3.7170      2.00000
      4      -3.6614      2.00000
      5      -2.2692      2.00000
      6      -2.2191      2.00000
      7      -2.1994      2.00000
      8      -2.1648      2.00000
      9      -0.5846      2.00000
     10      -0.0278      0.39039
     11       0.0747     -0.14392
     12       0.2909      0.00000
     13       0.4639      0.00000
     14       1.0140      0.00000
     15       1.8439      0.00000
     16       1.9723      0.00000
     17       2.4383      0.00000
     18       2.6348      0.00000
     19       3.2002      0.00000
     20       3.4099      0.00000
     21       3.5161      0.00000
     22       3.5598      0.00000
     23       3.8370      0.00000
     24       4.1120      0.00000
     25       4.1959      0.00000
     26       4.4348      0.00000
     27       4.4505      0.00000
     28       4.5098      0.00000
     29       4.7514      0.00000
     30       4.8909      0.00000
     31       5.4883      0.00000
     32       6.0466      0.00000
     33       6.4114      0.00000
     34       6.7391      0.00000
     35       7.4159      0.00000
     36       7.4738      0.00000
     37       8.0638      0.00000
     38       8.1124      0.00000
     39       8.2674      0.00000
     40       8.3668      0.00000

 k-point    17 :       0.2500    0.2500    0.0000
  band No.  band energies     occupation 
      1      -9.3551      2.00000
      2      -9.3484      2.00000
      3      -3.4937      2.00000
      4      -3.4113      2.00000
      5      -2.5481      2.00000
      6      -2.3718      2.00000
      7      -2.2850      2.00000
      8      -2.2750      2.00000
      9      -0.7492      2.00000
     10       0.0332      0.00000
     11       0.0996      0.00000
     12       0.5503      0.00000
     13       0.6546      0.00000
     14       1.1785      0.00000
     15       1.2421      0.00000
     16       1.6851      0.00000
     17       2.3896      0.00000
     18       2.5741      0.00000
     19       3.0134      0.00000
     20       3.3730      0.00000
     21       3.3940      0.00000
     22       3.5829      0.00000
     23       3.9008      0.00000
     24       3.9612      0.00000
     25       4.3780      0.00000
     26       4.3853      0.00000
     27       4.5614      0.00000
     28       4.5962      0.00000
     29       4.8820      0.00000
     30       5.0571      0.00000
     31       5.5739      0.00000
     32       6.5850      0.00000
     33       6.6653      0.00000
     34       6.7455      0.00000
     35       6.8715      0.00000
     36       7.1033      0.00000
     37       7.5865      0.00000
     38       7.6436      0.00000
     39       7.9310      0.00000
     40       8.4637      0.00000

 k-point    18 :       0.3333    0.2500    0.0000
  band No.  band energies     occupation 
      1      -9.2392      2.00000
      2      -9.2367      2.00000
      3      -3.4271      2.00000
      4      -3.3880      2.00000
      5      -2.6351      2.00000
      6      -2.6015      2.00000
      7      -2.1989      2.00000
      8      -2.1763      2.00000
      9      -0.5223      2.00000
     10       0.1738      0.00000
     11       0.2360      0.00000
     12       0.3587      0.00000
     13       0.4874      0.00000
     14       1.2741      0.00000
     15       1.5596      0.00000
     16       1.6111      0.00000
     17       2.4382      0.00000
     18       2.6844      0.00000
     19       3.1117      0.00000
     20       3.3083      0.00000
     21       3.4295      0.00000
     22       3.5924      0.00000
     23       3.8509      0.00000
     24       4.0656      0.00000
     25       4.1933      0.00000
     26       4.3840      0.00000
     27       4.6741      0.00000
     28       4.7474      0.00000
     29       5.0112      0.00000
     30       5.1294      0.00000
     31       5.6849      0.00000
     32       6.1300      0.00000
     33       6.5170      0.00000
     34       6.9061      0.00000
     35       6.9564      0.00000
     36       7.3332      0.00000
     37       7.6955      0.00000
     38       7.8226      0.00000
     39       8.0759      0.00000
     40       8.3952      0.00000

 k-point    19 :       0.3333    0.3333    0.0000
  band No.  band energies     occupation 
      1      -9.1986      2.00000
      2      -9.1984      2.00000
      3      -3.1199      2.00000
      4      -3.1197      2.00000
      5      -2.9847      2.00000
      6      -2.9754      2.00000
      7      -2.1499      2.00000
      8      -2.1497      2.00000
      9      -0.4024      2.00000
     10       0.2989      0.00000
     11       0.2992      0.00000
     12       0.3919      0.00000
     13       0.3919      0.00000
     14       1.4807      0.00000
     15       1.4809      0.00000
     16       1.4811      0.00000
     17       2.4613      0.00000
     18       2.7349      0.00000
     19       3.1548      0.00000
     20       3.1550      0.00000
     21       3.2694      0.00000
     22       3.7584      0.00000
     23       3.7585      0.00000
     24       4.0502      0.00000
     25       4.2778      0.00000
     26       4.2780      0.00000
     27       4.8712      0.00000
     28       5.0408      0.00000
     29       5.0410      0.00000
     30       5.1292      0.00000
     31       5.8379      0.00000
     32       5.8379      0.00000
     33       6.7946      0.00000
     34       6.7947      0.00000
     35       7.0316      0.00000
     36       7.1231      0.00000
     37       7.1233      0.00000
     38       7.8981      0.00000
     39       8.6164      0.00000
     40       9.1302      0.00000


--------------------------------------------------------------------------------------------------------


 soft charge-density along one line, spin component           1
         0         1         2         3         4         5         6         7         8         9
 total charge-density along one line
 
 pseudopotential strength for first ion, spin component:           1
  9.938   0.000  13.210   0.000   0.000   0.000   0.000   0.000  -0.000   0.000  -0.000   0.000  -0.000   0.000   0.000   0.000
 13.210   0.000  17.557   0.000   0.000   0.000   0.000   0.000  -0.000   0.000  -0.000   0.000  -0.000   0.000   0.000   0.000
  0.000   0.000   0.000   0.000  -4.114   0.000   0.000   0.000  -0.000   0.000   8.062   0.000  -0.000   0.000   0.000   0.000
  0.000   0.000   0.000   0.000   0.000   0.000  -4.117   0.000   0.000   0.000  -0.000   0.000   8.067   0.000  -0.000   0.000
 -0.000   0.000  -0.000   0.000  -0.000   0.000   0.000   0.000  -4.114   0.000   0.000   0.000  -0.000   0.000   8.062   0.000
 -0.000   0.000  -0.000   0.000   8.062   0.000  -0.000   0.000   0.000   0.000 -17.922   0.000   0.000   0.000  -0.000   0.000
 -0.000   0.000  -0.000   0.000  -0.000   0.000   8.067   0.000  -0.000   0.000   0.000   0.000 -17.932   0.000   0.000   0.000
  0.000   0.000   0.000   0.000   0.000   0.000  -0.000   0.000   8.062   0.000  -0.000   0.000   0.000   0.000 -17.922   0.000
 total augmentation occupancy for first ion, spin component:           1
  4.609  -1.468  -0.000  -0.016   0.000   0.000  -0.002   0.000
 -1.468   0.488   0.000   0.007   0.000  -0.000   0.001  -0.000
  0.000   0.000   1.267   0.000   0.000   0.076   0.000   0.000
 -0.016   0.007   0.000   1.185   0.000  -0.000   0.072  -0.000
 -0.000   0.000   0.000  -0.000   1.267   0.000   0.000   0.076
  0.000   0.000   0.076   0.000   0.000   0.005   0.000   0.000
 -0.002   0.001   0.000   0.072  -0.000   0.000   0.004   0.000
 -0.000   0.000   0.000   0.000   0.076   0.000   0.000   0.005


------------------------ aborting loop because EDIFF is reached ----------------------------------------


 


 total charge     
 
# of ion       s       p       d       tot
------------------------------------------
    1        0.880   1.466   0.000   2.346
    2        0.880   1.466   0.000   2.346
    3        0.441   0.626   1.229   2.297
    4        0.416   0.657   1.155   2.229
    5        0.441   0.626   1.229   2.297
    6        0.416   0.657   1.155   2.229
--------------------------------------------------
tot          3.476   5.498   4.770  13.744
 
    CHARGE:  cpu time    0.0576: real time    0.0577
    FORLOC:  cpu time    0.0078: real time    0.0079
    FORNL :  cpu time    0.3655: real time    0.3663
    STRESS:  cpu time    1.1047: real time    1.1073
    FORCOR:  cpu time    0.0624: real time    0.0626
    FORHAR:  cpu time    0.0199: real time    0.0199
    MIXING:  cpu time    0.0044: real time    0.0045
    OFIELD:  cpu time    0.0000: real time    0.0000

 ---------------------------------------------------------------------------------------------

         DFTD3 V3.0 Rev 1        
 IVDW         = 11
 DF pbe       
 parameters
 VDW_S6       =    1.0000
 VDW_S8       =    0.7220
 VDW_SR       =    1.2170
 rs18     =    1.0000
 alpha6   =   14.0000
 alpha8   =   16.0000
 k1-k3    =   16.0000    1.3333   -4.0000
 VDW_RADIUS   =   50.2022 A
 VDW_CNRADIUS =   21.1671 A
 Edisp (eV)   -0.92286

 E6    (eV) :    -0.3823
 E8    (eV) :    -0.5406
 % E8        : 58.58
    FORVDW:  cpu time    0.0260: real time    0.0603

  FORCE on cell =-STRESS in cart. coord.  units (eV):
  Direction    XX          YY          ZZ          XY          YZ          ZX
  --------------------------------------------------------------------------------------
  Alpha Z    11.25571    11.25571    11.25571
  Ewald    2574.99609  2574.99609 -2946.49408     0.00000     0.00000    -0.00000
  Hartree  2646.59785  2646.59785 -2601.43716     0.00000     0.00000    -0.00000
  E(xc)     -73.72559   -73.72559   -72.50150     0.00000    -0.00000     0.00000
  Local   -5392.86581 -5392.86582  5379.67646    -0.00001    -0.00000     0.00000
  n-local    38.10484    39.26971    35.66626    -5.02920    -0.84427    -2.80700
  augment    22.78455    22.78456    21.88740     0.00001     0.00000     0.00000
  Kinetic   170.80725   176.47392   172.66878    -1.40769    -1.04444    -4.24373
  Fock        0.00000     0.00000     0.00000     0.00000     0.00000     0.00000
  vdW        -1.12660    -1.12660    -0.74939     0.00000     0.00000    -0.00000
  -------------------------------------------------------------------------------------
  Total       0.24405     0.24405    -0.02752     0.00000     0.00000     0.00000
  in kB       1.56615     1.56615    -0.17658     0.00000     0.00000     0.00000
  external pressure =        0.99 kB  Pullay stress =        0.00 kB


 VOLUME and BASIS-vectors are now :
 -----------------------------------------------------------------------------
  energy-cutoff  :      650.00
  volume of cell :      249.67
      direct lattice vectors                 reciprocal lattice vectors
     3.395829439  0.000000000  0.000000000     0.294478865  0.170017452  0.000000000
    -1.697914720  2.940874561  0.000000000     0.000000000  0.340034904  0.000000000
     0.000000000  0.000000000 25.000000000     0.000000000  0.000000000  0.040000000

  length of vectors
     3.395829439  3.395829439 25.000000000     0.340034904  0.340034904  0.040000000


 FORCES acting on ions
    electron-ion (+dipol)            ewald-force                    non-local-force                 convergence-correction
 -----------------------------------------------------------------------------------------------
   -.107E-06 -.950E-05 0.205E+03   0.747E-06 -.149E-05 -.205E+03   0.694E-17 0.000E+00 -.354E-04   -.469E-10 -.338E-09 0.501E-02
   -.166E-04 -.155E-06 -.205E+03   -.167E-05 -.119E-06 0.205E+03   -.347E-17 0.000E+00 0.354E-04   -.562E-09 -.466E-10 -.504E-02
   -.221E-07 -.950E-06 -.271E+03   0.924E-06 0.612E-06 0.268E+03   -.278E-16 0.000E+00 0.366E+01   0.491E-10 0.575E-10 -.895E-03
   0.141E-05 0.366E-08 0.323E+02   -.830E-06 0.403E-06 -.343E+02   -.555E-16 0.000E+00 0.191E+01   -.728E-10 0.811E-10 0.279E-02
   0.147E-07 -.970E-06 0.271E+03   0.596E-07 0.110E-05 -.268E+03   0.278E-16 0.000E+00 -.366E+01   0.638E-10 0.478E-10 0.883E-03
   -.148E-07 0.811E-06 -.323E+02   0.770E-06 -.507E-06 0.343E+02   0.555E-16 0.000E+00 -.191E+01   0.145E-09 -.437E-10 -.282E-02
 -----------------------------------------------------------------------------------------------
   -.153E-04 -.108E-04 0.542E-03   0.176E-14 -.137E-14 -.213E-13   0.347E-17 0.000E+00 0.133E-14   -.424E-09 -.242E-09 -.627E-04
 
 
 POSITION                                       TOTAL-FORCE (eV/Angst)
 -----------------------------------------------------------------------------------
     -0.00000      1.96058      1.21640        -0.000000      0.000000      0.002058
      1.69791      0.98029      6.79426         0.000000     -0.000000     -0.002058
      0.00000      0.00000      7.97644         0.000000      0.000000      0.004749
      1.69791      0.98029      2.53202         0.000000      0.000000     -0.002949
      0.00000      0.00000      0.03421        -0.000000      0.000000     -0.004749
     -0.00000      1.96058      5.47863         0.000000      0.000000      0.002949
 -----------------------------------------------------------------------------------
    total drift:                               -0.000015     -0.000011      0.000480


--------------------------------------------------------------------------------------------------------



  FREE ENERGIE OF THE ION-ELECTRON SYSTEM (eV)
  ---------------------------------------------------
  free  energy   TOTEN  =       -38.90462165 eV

  energy  without entropy=      -38.90462165  energy(sigma->0) =      -38.90462165
 


--------------------------------------------------------------------------------------------------------


    POTLOK:  cpu time    0.0775: real time    0.0776


--------------------------------------------------------------------------------------------------------


 stress matrix after NEB project (eV)
      0.24405      0.00000      0.00000
      0.00000      0.24405      0.00000
     -0.00000      0.00000     -0.02752
  FORCES: max atom, RMS     0.004749    0.003439
  FORCE total and by dimension    0.008425    0.004749
  Stress total and by dimension    0.346239    0.244053
     LOOP+:  cpu time   28.6675: real time   31.1491
 -----------------------------------------------------------------------------
|                                                                             |
|           W    W    AA    RRRRR   N    N  II  N    N   GGGG   !!!           |
|           W    W   A  A   R    R  NN   N  II  NN   N  G    G  !!!           |
|           W    W  A    A  R    R  N N  N  II  N N  N  G       !!!           |
|           W WW W  AAAAAA  RRRRR   N  N N  II  N  N N  G  GGG   !            |
|           WW  WW  A    A  R   R   N   NN  II  N   NN  G    G                |
|           W    W  A    A  R    R  N    N  II  N    N   GGGG   !!!           |
|                                                                             |
|     Tetrahedron method does not include variations of the Fermi             |
|     occupations, so forces and stress will be inaccurate. We suggest        |
|     using a different smearing scheme ISMEAR = 1 or 2 for metals in         |
|     relaxations.                                                            |
|                                                                             |
 -----------------------------------------------------------------------------

    4ORBIT:  cpu time    0.0000: real time    0.0000
 


 total charge     
 
# of ion       s       p       d       tot
------------------------------------------
    1        0.880   1.466   0.000   2.346
    2        0.880   1.466   0.000   2.346
    3        0.441   0.626   1.229   2.297
    4        0.416   0.657   1.155   2.229
    5        0.441   0.626   1.229   2.297
    6        0.416   0.657   1.155   2.229
--------------------------------------------------
tot          3.476   5.498   4.770  13.744
 
 BZINTS: Fermi energy:   -0.082313;   20.000000 electrons
         Band energy:-0.733737E+02;  BLOECHL correction:   -0.015697

 total amount of memory used by VASP MPI-rank0    62955. kBytes
=======================================================================

   base      :      30000. kBytes
   nonlr-proj:       1879. kBytes
   fftplans  :       6965. kBytes
   grid      :       9584. kBytes
   one-center:         21. kBytes
   wavefun   :      14506. kBytes
 
  
  
 General timing and accounting informations for this job:
 ========================================================
  
                  Total CPU time used (sec):       32.404
                            User time (sec):       31.078
                          System time (sec):        1.326
                         Elapsed time (sec):       42.099
  
                   Maximum memory used (kb):      105564.
                   Average memory used (kb):           0.
  
                          Minor page faults:        61296
                          Major page faults:            0
                 Voluntary context switches:         3936
